/*--------------------------------*- C++ -*----------------------------------*\
| =========                 |                                                 |
| \\      /  F ield         | OpenFOAM: The Open Source CFD Toolbox           |
|  \\    /   O peration     | Version:  v2012                                 |
|   \\  /    A nd           | Website:  www.openfoam.com                      |
|    \\/     M anipulation  |                                                 |
\*---------------------------------------------------------------------------*/
FoamFile
{
    version     2.0;
    format      ascii;
    class       volScalarField;
    location    "15";
    object      T;
}
// * * * * * * * * * * * * * * * * * * * * * * * * * * * * * * * * * * * * * //

dimensions      [0 2 -2 0 0 0 0];


internalField   nonuniform List<scalar>
16000
(
-0.4109194576740265
-0.48401299118995667
-0.32244816422462463
-0.3255196511745453
-0.2591610252857208
-0.19980895519256592
-0.010201901197433472
0.019930094480514526
0.2154497653245926
0.24690371751785278
0.23899871110916138
0.39869260787963867
0.3465368449687958
0.4644155502319336
0.5094731450080872
0.508376955986023
0.6842350959777832
0.7159930467605591
0.7250189781188965
0.770086407661438
0.7658833265304565
0.7687585353851318
0.816633939743042
0.8306455612182617
0.8136482238769531
0.7879856824874878
0.7650132179260254
0.711430013179779
0.6484086513519287
0.5922051668167114
0.5337936878204346
0.49566274881362915
0.45402297377586365
0.4002634584903717
0.34767287969589233
0.28951895236968994
0.24715130031108856
0.20103301107883453
0.13005489110946655
0.08122986555099487
0.02515283226966858
-0.027995198965072632
-0.08483871817588806
-0.12484210729598999
-0.17855942249298096
-0.21202895045280457
-0.25203874707221985
-0.31035009026527405
-0.36840757727622986
-0.43321314454078674
-0.4171887934207916
-0.4638480246067047
-0.5366876125335693
-0.5717270374298096
-0.6384071111679077
-0.6913310289382935
-0.741201639175415
-0.8057547807693481
-0.9168089628219604
-0.9736289978027344
-0.9967049360275269
-1.0174916982650757
-1.0619293451309204
-1.0628291368484497
-1.0857490301132202
-1.0479451417922974
-1.0406867265701294
-1.1195433139801025
-1.2439090013504028
-1.2101901769638062
-1.3592568635940552
-1.6534093618392944
-1.7602256536483765
-1.7809802293777466
-1.801233172416687
-1.821389079093933
-1.8395968675613403
-1.8531581163406372
-1.7467271089553833
-1.7107473611831665
-0.4507894814014435
-0.40487077832221985
-0.3732886016368866
-0.3984544575214386
-0.3294775187969208
-0.2433757483959198
-0.009195387363433838
0.02903592586517334
0.26235100626945496
0.2893570065498352
0.43264108896255493
0.4579741358757019
0.4250670373439789
0.5780419111251831
0.5654675960540771
0.6823225021362305
0.7448713779449463
0.752000629901886
0.7948278188705444
0.8013309240341187
0.7732853889465332
0.7422046661376953
0.7902176380157471
0.8196396827697754
0.813136100769043
0.8055161237716675
0.7778099179267883
0.7340543270111084
0.6722968816757202
0.6138495206832886
0.5511089563369751
0.5125851631164551
0.4630071818828583
0.39878731966018677
0.37630343437194824
0.3319140076637268
0.29751086235046387
0.22942104935646057
0.18310949206352234
0.1272643804550171
0.08037160336971283
0.047990068793296814
-0.010464191436767578
-0.0307328999042511
-0.0819767415523529
-0.11628994345664978
-0.15040543675422668
-0.19569766521453857
-0.23711362481117249
-0.3084842264652252
-0.2499023973941803
-0.29286500811576843
-0.35806694626808167
-0.39174631237983704
-0.45691677927970886
-0.4894407093524933
-0.5022308826446533
-0.5309184789657593
-0.6010454893112183
-0.5662612915039062
-0.5668622255325317
-0.6118381023406982
-0.6313117742538452
-0.6980451345443726
-0.7617291212081909
-0.762702226638794
-0.775861382484436
-0.8999592065811157
-0.9769841432571411
-0.962037205696106
-1.0326741933822632
-1.3064059019088745
-1.3345847129821777
-1.3415733575820923
-1.3698407411575317
-1.392873764038086
-1.412956953048706
-1.431024193763733
-1.434326410293579
-1.4016960859298706
-0.48277726769447327
-0.42856475710868835
-0.4445325434207916
-0.3238508403301239
-0.40755775570869446
-0.18768048286437988
-0.03296598792076111
0.17762383818626404
0.3135926425457001
0.3485769033432007
0.4815253019332886
0.5109317302703857
0.5728055238723755
0.5993084907531738
0.6382240056991577
0.7230340242385864
0.7695331573486328
0.8131771087646484
0.8449505567550659
0.8387026786804199
0.7747278809547424
0.7737464904785156
0.79311203956604
0.8034087419509888
0.8166937828063965
0.7916594743728638
0.7721710205078125
0.7339632511138916
0.6748040914535522
0.6155040860176086
0.5588957071304321
0.5189598798751831
0.4671741724014282
0.42367976903915405
0.37754714488983154
0.3596555292606354
0.3221770226955414
0.2695949077606201
0.20973847806453705
0.17869269847869873
0.13579998910427094
0.0818011611700058
0.02657380700111389
0.044765129685401917
-0.0009897053241729736
-0.042615294456481934
-0.10309728980064392
-0.16177618503570557
-0.20793572068214417
-0.24691638350486755
-0.16746285557746887
-0.19420850276947021
-0.24677899479866028
-0.26247403025627136
-0.3008017838001251
-0.3322989046573639
-0.35460224747657776
-0.4105514585971832
-0.46041741967201233
-0.40701839327812195
-0.4600556194782257
-0.47730597853660583
-0.4957023561000824
-0.5505150556564331
-0.6101411581039429
-0.6074545383453369
-0.6640371084213257
-0.7601991891860962
-0.8086904287338257
-0.8171443939208984
-0.8475199937820435
-1.0514107942581177
-1.1662709712982178
-1.191626787185669
-1.2164958715438843
-1.2373095750808716
-1.2572646141052246
-1.2799025774002075
-1.2755869626998901
-1.2461620569229126
-0.36873146891593933
-0.43947508931159973
-0.3526228368282318
-0.3803422749042511
-0.3286249339580536
-0.26881805062294006
-0.033993422985076904
0.26225975155830383
0.36448928713798523
0.44173938035964966
0.49957820773124695
0.5335482358932495
0.5954188108444214
0.6183594465255737
0.6778441667556763
0.736251711845398
0.8016746044158936
0.9061325788497925
0.9231318235397339
0.8814079761505127
0.8497835397720337
0.7826989889144897
0.7660113573074341
0.8102278709411621
0.8161909580230713
0.8023494482040405
0.7632585167884827
0.7360366582870483
0.682103157043457
0.6192626953125
0.5588499307632446
0.5213761329650879
0.463125079870224
0.4243502616882324
0.38286787271499634
0.36226168274879456
0.3313198387622833
0.3027632236480713
0.25898534059524536
0.21098428964614868
0.1509578675031662
0.09604200720787048
0.04912202060222626
0.090433269739151
0.025967806577682495
-0.022764235734939575
-0.0635327398777008
-0.1164962649345398
-0.15844234824180603
-0.18659049272537231
-0.08310559391975403
-0.10807952284812927
-0.1467873752117157
-0.19759729504585266
-0.22178545594215393
-0.27473005652427673
-0.3041633665561676
-0.33909299969673157
-0.40752938389778137
-0.31971243023872375
-0.32148435711860657
-0.3374386727809906
-0.3681599199771881
-0.3951045572757721
-0.4426266849040985
-0.4846898019313812
-0.49273917078971863
-0.5331943035125732
-0.5537881851196289
-0.5093886852264404
-0.5724486112594604
-0.7428514957427979
-0.8067587614059448
-0.936739444732666
-0.9457589387893677
-0.9525928497314453
-0.9707587957382202
-1.0597318410873413
-1.0515741109848022
-1.0287562608718872
-0.25986310839653015
-0.34446921944618225
-0.38495245575904846
-0.35420504212379456
-0.40665575861930847
-0.27930447459220886
0.14040187001228333
0.19368115067481995
0.27831658720970154
0.3491930067539215
0.4529953598976135
0.5397398471832275
0.6174393892288208
0.6659128665924072
0.7043591737747192
0.7517197132110596
0.8258944749832153
0.9457358121871948
0.9653680324554443
0.9410295486450195
0.8860089778900146
0.7751551866531372
0.7837662696838379
0.79233717918396
0.8088064193725586
0.8062189817428589
0.7745499610900879
0.7385996580123901
0.6872748136520386
0.6295872926712036
0.5584539175033569
0.5091856122016907
0.4588456451892853
0.42465439438819885
0.3846205472946167
0.363455593585968
0.3326953053474426
0.3289722800254822
0.2847842872142792
0.2221718430519104
0.15594027936458588
0.09964805841445923
0.056909188628196716
0.09536954760551453
0.04887762665748596
-0.0030281245708465576
-0.04845857620239258
-0.08188673853874207
-0.12749066948890686
-0.15412139892578125
-0.05780431628227234
-0.08658751845359802
-0.1307407021522522
-0.16652211546897888
-0.17384371161460876
-0.2124282717704773
-0.24678614735603333
-0.25947996973991394
-0.29391101002693176
-0.15091034770011902
-0.1726691722869873
-0.13985255360603333
-0.1612505316734314
-0.1801585555076599
-0.2311689555644989
-0.22316047549247742
-0.23602721095085144
-0.2553786337375641
-0.2634887397289276
-0.27965834736824036
-0.3232525885105133
-0.3726043403148651
-0.8632935285568237
-0.8564645051956177
-0.8482171297073364
-0.8383651971817017
-0.8300217390060425
-0.8286863565444946
-0.7177106142044067
-0.7076575756072998
-0.1847303807735443
-0.2534539997577667
-0.354621559381485
-0.41049161553382874
-0.2987281382083893
-0.04041096568107605
-0.011543363332748413
-0.010929077863693237
0.05782793462276459
0.1830819696187973
0.35343390703201294
0.47299230098724365
0.5997876524925232
0.6801044940948486
0.7252466678619385
0.8025304079055786
0.840465784072876
0.964989185333252
1.016231656074524
0.9778248071670532
0.9209717512130737
0.8476502895355225
0.7850304841995239
0.7906786203384399
0.7978315353393555
0.8033115863800049
0.7767019271850586
0.7454859018325806
0.6927696466445923
0.6306018829345703
0.5654894113540649
0.5107781887054443
0.46460387110710144
0.4201434850692749
0.39248931407928467
0.3668128550052643
0.3337089717388153
0.32900458574295044
0.29277724027633667
0.2275819480419159
0.1558944582939148
0.11178526282310486
0.0708053857088089
0.13259848952293396
0.06183221936225891
0.0004335343837738037
-0.05346378684043884
-0.07436487078666687
-0.11765345931053162
-0.13307377696037292
-0.04327559471130371
-0.06843706965446472
-0.08591803908348083
-0.07902836799621582
-0.1131407618522644
-0.1400645673274994
-0.1636863648891449
-0.18124136328697205
-0.18826526403427124
-0.07563620805740356
-0.059811681509017944
-0.08266031742095947
-0.0695430338382721
-0.12496381998062134
-0.10605049133300781
-0.10928133130073547
-0.07002684473991394
-0.13032016158103943
-0.14560797810554504
-0.15687227249145508
-0.24752798676490784
-0.26903286576271057
-0.8605943918228149
-0.854648232460022
-1.418249487876892
-1.4036579132080078
-1.3901346921920776
-1.380179762840271
-1.35966956615448
-1.3192648887634277
-0.08481478691101074
-0.27822795510292053
-0.38210728764533997
-0.3507426679134369
-0.18653520941734314
-0.27811935544013977
-0.3329131305217743
-0.3427969515323639
-0.35817888379096985
-0.11754235625267029
0.1535651683807373
0.34847185015678406
0.5338575839996338
0.6624438166618347
0.7517749071121216
0.817137598991394
0.8816214799880981
0.9636634588241577
1.0549226999282837
1.0376328229904175
0.9854217767715454
0.8922836780548096
0.8304260969161987
0.8293887376785278
0.8066349029541016
0.7986340522766113
0.7719135284423828
0.7376973628997803
0.6995059251785278
0.6369751691818237
0.5728473663330078
0.5256364345550537
0.46277326345443726
0.42936986684799194
0.4010341465473175
0.369284987449646
0.3363851010799408
0.3031674325466156
0.2977127134799957
0.23062509298324585
0.1850181519985199
0.1230279952287674
0.044630587100982666
0.01644119620323181
0.06904181838035583
0.0075099170207977295
-0.027419298887252808
-0.08583015203475952
-0.12087035179138184
-0.14456334710121155
-0.20695605874061584
-0.0764058530330658
-0.04424062371253967
-0.06379905343055725
-0.10424324870109558
-0.1111392080783844
-0.15246590971946716
-0.12707951664924622
-0.09315386414527893
-0.10129675269126892
0.00525549054145813
-0.014380007982254028
-0.025165706872940063
-0.04743751883506775
-0.06040683388710022
-0.07245674729347229
-0.10026320815086365
-0.14274558424949646
-0.15559902787208557
-0.16337850689888
-0.25291797518730164
-0.36928191781044006
-0.993517279624939
-1.427459716796875
-1.4247227907180786
-1.4119853973388672
-1.4013928174972534
-1.3934146165847778
-1.377355933189392
-1.338401198387146
-0.09250381588935852
-0.2885693609714508
-0.3078058660030365
-0.12411877512931824
-0.8225198984146118
-2.059936285018921
-2.2103424072265625
-2.0235402584075928
-1.0899525880813599
-0.9502339363098145
-0.40395399928092957
0.11675432324409485
0.3216601014137268
0.5571626424789429
0.7209481000900269
0.8170751333236694
0.907335638999939
0.9951698780059814
1.0743486881256104
1.099259853363037
1.0400280952453613
0.9498929977416992
0.9116203784942627
0.8761733770370483
0.8193024396896362
0.8027442693710327
0.773613452911377
0.7330896854400635
0.6924095153808594
0.6532899141311646
0.5889761447906494
0.5364778637886047
0.49650102853775024
0.4352326989173889
0.40563538670539856
0.37131333351135254
0.34105539321899414
0.3044331669807434
0.3006534278392792
0.22577959299087524
0.18445555865764618
0.12242290377616882
0.04789392650127411
0.01901218295097351
0.0683007538318634
-0.005423218011856079
-0.054930150508880615
-0.08923497796058655
-0.16587337851524353
-0.17244723439216614
-0.20209696888923645
-0.042942553758621216
-0.032562047243118286
-0.06544384360313416
-0.09678405523300171
-0.12717077136039734
-0.09353601932525635
-0.10340121388435364
-0.14191025495529175
-0.13695687055587769
-0.030040353536605835
-0.03544238209724426
-0.030749887228012085
-0.06148305535316467
-0.07686182856559753
-0.10374584794044495
-0.11308449506759644
-0.1562630832195282
-0.1602211892604828
-0.2323792278766632
-0.3458123505115509
-0.37636151909828186
-0.38755545020103455
-1.4331227540969849
-1.4308947324752808
-1.4212473630905151
-1.413260579109192
-1.4065231084823608
-1.3940075635910034
-1.3591068983078003
-0.1293034553527832
-0.14565113186836243
-0.25954726338386536
-2.15964674949646
-4.297940254211426
-5.5462141036987305
-5.57499885559082
-4.165498733520508
-3.512030839920044
-2.1039507389068604
-1.3485337495803833
-0.37880077958106995
0.023595750331878662
0.28878673911094666
0.5780277252197266
0.7694618105888367
0.8828219175338745
0.9967179298400879
1.0750240087509155
1.1152490377426147
1.094716191291809
1.0185335874557495
0.9729306697845459
0.9154000282287598
0.8740413188934326
0.8073128461837769
0.7760823965072632
0.7407873868942261
0.7041563391685486
0.6657980680465698
0.6073233485221863
0.555368185043335
0.4991934299468994
0.4447595775127411
0.4085438847541809
0.3687247335910797
0.3398592174053192
0.30514809489250183
0.25009894371032715
0.25515925884246826
0.18647685647010803
0.11112943291664124
0.07128648459911346
0.004277020692825317
-0.026506394147872925
0.011583179235458374
-0.07678887248039246
-0.12560594081878662
-0.19335496425628662
-0.1994796097278595
-0.260843425989151
-0.27778998017311096
-0.11266830563545227
-0.14322373270988464
-0.18177637457847595
-0.10873726010322571
-0.1455051600933075
-0.1524585485458374
-0.2060759961605072
-0.16057851910591125
-0.24202421307563782
-0.040114372968673706
-0.047968506813049316
-0.07997944951057434
-0.10896852612495422
-0.11732533574104309
-0.125003844499588
-0.19020622968673706
-0.22952058911323547
-0.2403208315372467
-0.25436118245124817
-0.3807932436466217
-0.39220306277275085
-1.4377366304397583
-2.203179121017456
-2.1849119663238525
-2.161635398864746
-2.1323583126068115
-2.0909528732299805
-2.017237901687622
-0.06634542346000671
-0.8739408254623413
-3.7169182300567627
-7.213099956512451
-9.182714462280273
-9.684048652648926
-8.595331192016602
-7.3504228591918945
-5.8547563552856445
-4.038548469543457
-2.67034649848938
-1.5121357440948486
-0.46024999022483826
0.03884038329124451
0.34976494312286377
0.6114664077758789
0.7840327024459839
0.9515697956085205
1.0578948259353638
1.1184778213500977
1.1494306325912476
1.0799211263656616
1.0103954076766968
0.9445931911468506
0.8993707895278931
0.8041774034500122
0.7769143581390381
0.741662859916687
0.6870096325874329
0.654686689376831
0.609661340713501
0.5533850193023682
0.4931619167327881
0.44509661197662354
0.4070286154747009
0.3589327037334442
0.33669328689575195
0.2923405170440674
0.23796622455120087
0.1806526929140091
0.18047985434532166
0.1044560968875885
0.06397652626037598
-0.012568026781082153
-0.06499627232551575
-0.10803613066673279
-0.08796954154968262
-0.1605396270751953
-0.1848267912864685
-0.23891064524650574
-0.2845764458179474
-0.31892386078834534
-0.3731696903705597
-0.2206920087337494
-0.1838395893573761
-0.17918407917022705
-0.2139003574848175
-0.2475694715976715
-0.28602418303489685
-0.27335718274116516
-0.254424124956131
-0.060160160064697266
-0.06819608807563782
-0.11299371719360352
-0.12295511364936829
-0.15519091486930847
-0.15677276253700256
-0.22341421246528625
-0.2393571436405182
-0.2519820034503937
-0.2649284899234772
-0.40478745102882385
-0.4356900751590729
-0.4496792256832123
-2.2124881744384766
-2.1979868412017822
-2.182020664215088
-2.1557118892669678
-3.9475901126861572
-3.9560978412628174
-1.0437463521957397
-9.080018043518066
-10.186978340148926
-10.298859596252441
-10.272221565246582
-10.84005355834961
-10.738656044006348
-10.117539405822754
-8.960440635681152
-6.232329368591309
-4.332876205444336
-2.7535717487335205
-1.146554946899414
-0.5324819087982178
0.040811747312545776
0.3779591917991638
0.6802796125411987
0.8427844047546387
1.006791353225708
1.1095529794692993
1.2047206163406372
1.1520936489105225
1.0425450801849365
0.9573365449905396
0.8219493627548218
0.8129174709320068
0.7526493072509766
0.7230919599533081
0.6805061101913452
0.615125298500061
0.6003538370132446
0.5507181882858276
0.491887629032135
0.43670982122421265
0.3772169351577759
0.36108118295669556
0.323095440864563
0.2740015387535095
0.22580918669700623
0.17586299777030945
0.17502152919769287
0.11852151155471802
0.03407880663871765
-0.031266599893569946
-0.08701789379119873
-0.12168732285499573
-0.11464306712150574
-0.1579689085483551
-0.20584207773208618
-0.26594772934913635
-0.312623530626297
-0.3462463915348053
-0.3992871344089508
-0.18953397870063782
-0.24755623936653137
-0.26286497712135315
-0.28970465064048767
-0.33622875809669495
-0.2838006317615509
-0.26498737931251526
-0.2986890375614166
-0.25985363125801086
-0.1009562611579895
-0.15258339047431946
-0.16152697801589966
-0.1676863729953766
-0.17541959881782532
-0.23317363858222961
-0.2516901195049286
-0.2885155975818634
-0.29915961623191833
-0.2894560396671295
-0.4364667236804962
-0.4409134089946747
-0.9835031032562256
-3.9483397006988525
-3.9606292247772217
-3.9687340259552
-3.972294569015503
-3.9822781085968018
-10.919302940368652
-11.272100448608398
-11.284542083740234
-10.46854019165039
-10.769882202148438
-11.17424488067627
-11.346870422363281
-11.280030250549316
-10.679429054260254
-9.026793479919434
-6.539369583129883
-4.722156524658203
-2.9664928913116455
-1.3092002868652344
-0.3466363251209259
0.12677216529846191
0.47783124446868896
0.748441219329834
0.9179246425628662
1.1195363998413086
1.2178173065185547
1.2209405899047852
1.1021519899368286
0.9566181898117065
0.7616878747940063
0.6786127090454102
0.7180078029632568
0.6886866092681885
0.6591513156890869
0.5990914106369019
0.5456264615058899
0.5242252349853516
0.4808351397514343
0.4187508821487427
0.3499079942703247
0.3011002540588379
0.29380422830581665
0.2388908565044403
0.2178266942501068
0.1520674228668213
0.08076368272304535
0.09448495507240295
-0.005613356828689575
-0.059169262647628784
-0.08632120490074158
-0.15872326493263245
-0.22908344864845276
-0.177402526140213
-0.23212149739265442
-0.2663973867893219
-0.3369331657886505
-0.3585740625858307
-0.4122348725795746
-0.44135263562202454
-0.34053221344947815
-0.34867510199546814
-0.3362126052379608
-0.34275421500205994
-0.34092798829078674
-0.30440476536750793
-0.3578730523586273
-0.31428006291389465
-0.3457694351673126
-0.1639268696308136
-0.16709455847740173
-0.17523634433746338
-0.18290206789970398
-0.20438343286514282
-0.27879056334495544
-0.29665401577949524
-0.28595682978630066
-0.2924226224422455
-0.3849545419216156
-0.9238839149475098
-1.082293152809143
-1.4013900756835938
-1.3853020668029785
-3.9890825748443604
-7.2408013343811035
-7.242162704467773
-13.061714172363281
-12.034164428710938
-11.73253059387207
-11.200506210327148
-11.173768043518066
-11.44017219543457
-11.689860343933105
-11.818466186523438
-11.629168510437012
-10.95983600616455
-9.439322471618652
-6.913836479187012
-4.908066749572754
-2.416692018508911
-1.3743842840194702
-0.22430828213691711
0.22727367281913757
0.5704647302627563
0.8047722578048706
1.0646922588348389
1.2219419479370117
1.2692015171051025
1.1643154621124268
0.9733529090881348
0.740837812423706
0.6268346309661865
0.5816621780395508
0.6718555688858032
0.6207826137542725
0.5504137277603149
0.476004958152771
0.4496311545372009
0.4642148017883301
0.39802825450897217
0.3172733187675476
0.26719480752944946
0.21070799231529236
0.23317021131515503
0.18342387676239014
0.12425273656845093
0.04755398631095886
-0.005245506763458252
-0.02092042565345764
-0.059396713972091675
-0.11502498388290405
-0.18616273999214172
-0.2468566596508026
-0.26587042212486267
-0.2552562654018402
-0.26141801476478577
-0.3054293692111969
-0.3691939413547516
-0.41688278317451477
-0.4225814640522003
-0.4801733195781708
-0.3284997045993805
-0.30267348885536194
-0.3252268135547638
-0.3589065372943878
-0.37615349888801575
-0.41513553261756897
-0.3994370996952057
-0.4176502525806427
-0.35826054215431213
-0.17520883679389954
-0.19754230976104736
-0.20506975054740906
-0.21125248074531555
-0.2894138991832733
-0.2833130657672882
-0.37562504410743713
-0.5417467355728149
-0.549311637878418
-0.5571252107620239
-0.9361441135406494
-1.4717103242874146
-2.224918842315674
-2.2012500762939453
-7.278257846832275
-7.289119720458984
-12.890579223632812
-12.245789527893066
-11.510702133178711
-11.707419395446777
-11.739377975463867
-11.630070686340332
-11.957110404968262
-12.022940635681152
-12.22585391998291
-12.042618751525879
-11.155332565307617
-9.708274841308594
-7.13047981262207
-3.730058431625366
-2.3826816082000732
-0.8785794973373413
-0.12006273865699768
0.31101733446121216
0.674680233001709
0.9872668981552124
1.1995015144348145
1.3011330366134644
1.2081389427185059
0.985700249671936
0.6980916261672974
0.4829742908477783
0.5058498978614807
0.5094480514526367
0.5696464776992798
0.4957868754863739
0.4239147901535034
0.4148268401622772
0.3641560673713684
0.3628682494163513
0.3087350130081177
0.23578649759292603
0.17282870411872864
0.14735430479049683
0.14740782976150513
0.08770930767059326
0.04706290364265442
-0.035676926374435425
-0.12582826614379883
-0.08769240975379944
-0.15243646502494812
-0.20894333720207214
-0.2600095570087433
-0.28773531317710876
-0.3418925106525421
-0.2852800190448761
-0.31509074568748474
-0.35823336243629456
-0.40539321303367615
-0.4258559048175812
-0.47775283455848694
-0.5372910499572754
-0.3485892117023468
-0.3885801136493683
-0.40919163823127747
-0.46502795815467834
-0.4424572288990021
-0.3597055971622467
-0.3615628182888031
-0.4155435860157013
-0.37412431836128235
-0.20550662279129028
-0.21248891949653625
-0.21831080317497253
-0.47008606791496277
-0.5324876308441162
-0.5388089418411255
-0.5456414222717285
-0.6726891994476318
-0.6794538497924805
-0.6857095956802368
-1.4751458168029785
-1.47288978099823
-1.468896508216858
-2.184011220932007
-7.324698448181152
-13.095122337341309
-12.404423713684082
-11.999319076538086
-11.728367805480957
-11.525031089782715
-11.377242088317871
-11.620542526245117
-11.888143539428711
-12.286408424377441
-12.222296714782715
-12.170577049255371
-11.512616157531738
-10.04096508026123
-7.410728454589844
-3.834124803543091
-1.7919186353683472
-0.530184268951416
0.08204744756221771
0.554661750793457
0.8665231466293335
1.1348800659179688
1.2417312860488892
1.196622371673584
0.9993506669998169
0.6341062188148499
0.36945921182632446
0.4150491952896118
0.40497076511383057
0.3970836102962494
0.4397587180137634
0.4073501229286194
0.36732253432273865
0.31455904245376587
0.2512527108192444
0.19797778129577637
0.18877384066581726
0.12454620003700256
0.10948991775512695
0.03415289521217346
0.07598166167736053
0.007148563861846924
-0.08410099148750305
-0.15832018852233887
-0.18175113201141357
-0.26553210616111755
-0.2076984941959381
-0.25404468178749084
-0.3009784519672394
-0.35958781838417053
-0.4046246111392975
-0.3417651951313019
-0.37265995144844055
-0.3904654085636139
-0.4295244514942169
-0.4794309437274933
-0.5128682851791382
-0.527145504951477
-0.42769691348075867
-0.43322625756263733
-0.37200453877449036
-0.43154922127723694
-0.4112604558467865
-0.4093952476978302
-0.41011056303977966
-0.33609142899513245
-0.44230327010154724
-0.32127538323402405
-0.3277643024921417
-0.475790411233902
-0.5364140272140503
-0.6619046926498413
-0.6693545579910278
-0.6765841245651245
-0.6833490133285522
-0.7601653337478638
-0.7642425298690796
-0.9834718704223633
-1.4791451692581177
-1.470686674118042
-7.358212947845459
-13.039855003356934
-12.457794189453125
-12.459460258483887
-12.051005363464355
-12.022168159484863
-12.082629203796387
-12.270658493041992
-12.235061645507812
-12.596861839294434
-12.707365989685059
-12.916206359863281
-12.651578903198242
-11.279903411865234
-9.70194149017334
-5.960664749145508
-2.721146821975708
-1.0798262357711792
-0.17285093665122986
0.371428519487381
0.7401196956634521
1.0522947311401367
1.1624730825424194
1.1349923610687256
0.9592958688735962
0.47642332315444946
0.4122021198272705
0.23825232684612274
0.3137207627296448
0.30960023403167725
0.2848685383796692
0.27829957008361816
0.31224581599235535
0.25550028681755066
0.184592142701149
0.14220604300498962
0.05186989903450012
0.10331693291664124
0.051961854100227356
-0.01828444004058838
-0.08847704529762268
-0.1087903082370758
-0.11441734433174133
-0.19631221890449524
-0.2446562945842743
-0.2942606508731842
-0.3650297224521637
-0.28117063641548157
-0.33931735157966614
-0.3649121820926666
-0.357081800699234
-0.43588438630104065
-0.48973938822746277
-0.40838733315467834
-0.42105773091316223
-0.4338246285915375
-0.4967881143093109
-0.5568280220031738
-0.547781229019165
-0.3925533592700958
-0.39273789525032043
-0.3653891980648041
-0.45573845505714417
-0.49522867798805237
-0.47093382477760315
-0.48486366868019104
-0.43458256125450134
-0.3860052525997162
-0.33259525895118713
-0.40039005875587463
-0.5782852172851562
-0.6663904190063477
-0.6739556789398193
-0.7529572248458862
-0.7589664459228516
-0.7650532722473145
-0.7675039768218994
-0.7682164907455444
-1.3134626150131226
-1.8503996133804321
-8.812097549438477
-13.71169662475586
-12.793353080749512
-12.527599334716797
-12.20880126953125
-12.192802429199219
-12.448784828186035
-13.025568962097168
-12.658513069152832
-12.807947158813477
-12.951447486877441
-13.747714042663574
-13.531420707702637
-12.652618408203125
-11.269810676574707
-8.180583000183105
-4.064517974853516
-1.753811001777649
-0.3793363869190216
0.15997235476970673
0.5949491262435913
0.8668534755706787
1.0685499906539917
1.0377249717712402
0.8297926187515259
0.47637882828712463
0.06482884287834167
-0.20871388912200928
0.13165682554244995
0.22580283880233765
0.2181917428970337
0.21999108791351318
0.1447988748550415
0.19498997926712036
0.164669007062912
0.0756642073392868
-0.0192202627658844
-0.0463729202747345
-0.004557758569717407
-0.07153663039207458
-0.0919736921787262
-0.14897367358207703
-0.2530503571033478
-0.2053145170211792
-0.26353350281715393
-0.3249955475330353
-0.38546642661094666
-0.38160839676856995
-0.3469384014606476
-0.357112854719162
-0.3928035795688629
-0.4303247034549713
-0.46254125237464905
-0.5175559520721436
-0.4320802390575409
-0.45610615611076355
-0.46410122513771057
-0.5070013999938965
-0.5787450075149536
-0.5422385931015015
-0.5846854448318481
-0.4415346682071686
-0.43668946623802185
-0.5643181800842285
-0.5299652814865112
-0.5053071975708008
-0.5051441192626953
-0.5152662992477417
-0.38900884985923767
-0.39033690094947815
-0.6287851333618164
-0.7421960830688477
-0.7485479116439819
-0.7554409503936768
-0.7628709077835083
-1.3006173372268677
-1.3075746297836304
-1.3138692378997803
-1.9183834791183472
-1.9195910692214966
-9.250519752502441
-12.977761268615723
-12.36645793914795
-11.940152168273926
-11.278216361999512
-11.409285545349121
-10.946057319641113
-11.286337852478027
-11.366783142089844
-11.917092323303223
-13.108262062072754
-13.810938835144043
-14.029475212097168
-13.439467430114746
-12.573410987854004
-9.945483207702637
-7.416862487792969
-3.5244345664978027
-0.7880294322967529
0.10195109248161316
0.4268856942653656
0.7071249485015869
0.9438942670822144
0.9271725416183472
0.8244200944900513
0.5828120708465576
0.05747707188129425
-0.2824094593524933
-0.3130078613758087
0.005888849496841431
0.20283502340316772
0.14912612736225128
0.07558776438236237
0.005638480186462402