/*--------------------------------*- C++ -*----------------------------------*\
| =========                 |                                                 |
| \\      /  F ield         | OpenFOAM: The Open Source CFD Toolbox           |
|  \\    /   O peration     | Version:  v2006                                 |
|   \\  /    A nd           | Website:  www.openfoam.com                      |
|    \\/     M anipulation  |                                                 |
\*---------------------------------------------------------------------------*/
FoamFile
{
    version     2.0;
    format      ascii;
    class       volScalarField;
    location    "0";
    object      mixingLength;
}
// * * * * * * * * * * * * * * * * * * * * * * * * * * * * * * * * * * * * * //

dimensions      [0 1 0 0 0 0 0];


internalField   nonuniform List<scalar> 
40000
(
0.000837737
0.000837687
0.000837552
0.000836093
0.000830922
0.000819073
0.000798319
0.000771616
0.000748262
0.000730751
0.000719243
0.000713228
0.000711875
0.000714618
0.000721153
0.000731354
0.000745114
0.000761661
0.000778283
0.000794359
0.000809935
0.000824961
0.000839459
0.000853431
0.000866797
0.000879589
0.000891914
0.000904874
0.000919446
0.000935706
0.000953681
0.000973365
0.000994869
0.00101813
0.00104312
0.00106972
0.00109678
0.00112307
0.00114813
0.00117157
0.00119292
0.0012117
0.00122734
0.00123932
0.00124719
0.00125055
0.00124968
0.00124934
0.00124934
0.00124934
0.00124934
0.00124934
0.00124934
0.00124934
0.00124934
0.00124934
0.00124934
0.00124934
0.00124934
0.00124934
0.00124934
0.00124934
0.00124934
0.00124934
0.00124934
0.00124934
0.00124934
0.00124934
0.00124934
0.00124934
0.00124934
0.00124934
0.00124934
0.00124934
0.00124934
0.00124934
0.00124934
0.00124934
0.00124934
0.00124934
0.00124934
0.00124934
0.00124934
0.00124934
0.00124934
0.00124934
0.00124934
0.00124934
0.00124934
0.00124934
0.00124934
0.00124934
0.00124934
0.00124934
0.00124934
0.00124934
0.00124934
0.00124934
0.00124934
0.00124934
0.00124934
0.00124934
0.00124934
0.00124934
0.00124934
0.00124934
0.00124934
0.00124934
0.00124934
0.00124934
0.00124934
0.00124934
0.00124934
0.00124934
0.00124934
0.00124934
0.00124934
0.00124934
0.00124934
0.00124934
0.00124934
0.00124934
0.00124934
0.00124934
0.00124934
0.00124934
0.00124934
0.00124934
0.00124934
0.00124934
0.00124934
0.00124934
0.00124934
0.00124934
0.00124934
0.00124934
0.00124934
0.00124934
0.00124934
0.00124934
0.00124934
0.00124934
0.00124934
0.00124934
0.00124934
0.00124934
0.00124934
0.00124934
0.00124934
0.00124934
0.00124934
0.00124934
0.00124934
0.00124968
0.00125055
0.0012472
0.00123931
0.00122735
0.00121171
0.0011929
0.0011716
0.00114806
0.00112315
0.00109678
0.00106975
0.001043
0.00101812
0.000994935
0.000973377
0.000953717
0.000935632
0.00091954
0.00090487
0.000891824
0.000879737
0.000866765
0.000853321
0.000839344
0.000825211
0.000809824
0.000794244
0.000778512
0.000761571
0.000745011
0.000731563
0.000721112
0.000714532
0.000711756
0.000713412
0.000719173
0.000730677
0.000748348
0.00077162
0.000798299
0.000819078
0.000830918
0.000836097
0.000837552
0.000837687
0.000837737
0.002527
0.00252683
0.00252762
0.00253058
0.00253678
0.00254709
0.00256208
0.00258208
0.00260705
0.00263603
0.00266808
0.00270251
0.0027387
0.00277622
0.00281472
0.00285385
0.00289333
0.00293283
0.00297198
0.00301074
0.00304915
0.00308723
0.00312504
0.00316259
0.00319992
0.0032371
0.00327415
0.00331115
0.00334806
0.00338473
0.00342103
0.00345677
0.00349179
0.00352585
0.00355872
0.00359012
0.00361972
0.00364725
0.00367255
0.00369543
0.00371571
0.00373321
0.00374775
0.00375918
0.00376736
0.00377218
0.0037738
0.00377379
0.00377359
0.00377339
0.00377321
0.00377302
0.00377284
0.00377266
0.00377249
0.00377232
0.00377215
0.00377199
0.00377183
0.00377167
0.00377152
0.00377137
0.00377123
0.00377109
0.00377095
0.00377082
0.00377069
0.00377057
0.00377044
0.00377033
0.00377021
0.0037701
0.00377
0.00376989
0.00376979
0.0037697
0.00376961
0.00376952
0.00376944
0.00376936
0.00376928
0.00376921
0.00376914
0.00376908
0.00376902
0.00376896
0.00376891
0.00376886
0.00376881
0.00376877
0.00376873
0.0037687
0.00376867
0.00376864
0.00376862
0.0037686
0.00376858
0.00376857
0.00376856
0.00376856
0.00376856
0.00376856
0.00376857
0.00376858
0.0037686
0.00376862
0.00376864
0.00376867
0.0037687
0.00376873
0.00376877
0.00376881
0.00376886
0.00376891
0.00376896
0.00376902
0.00376908
0.00376914
0.00376921
0.00376928
0.00376936
0.00376944
0.00376952
0.00376961
0.0037697
0.00376979
0.00376989
0.00377
0.0037701
0.00377021
0.00377033
0.00377044
0.00377057
0.00377069
0.00377082
0.00377095
0.00377109
0.00377123
0.00377137
0.00377152
0.00377167
0.00377183
0.00377199
0.00377215
0.00377232
0.00377249
0.00377266
0.00377284
0.00377302
0.00377321
0.00377339
0.00377359
0.00377379
0.0037738
0.00377218
0.00376737
0.00375918
0.00374775
0.00373321
0.00371571
0.00369543
0.00367255
0.00364726
0.00361972
0.00359012
0.00355871
0.00352584
0.00349178
0.00345677
0.00342103
0.00338473
0.00334806
0.00331115
0.00327415
0.00323711
0.00319993
0.00316258
0.00312502
0.00308725
0.00304915
0.00301073
0.002972
0.00293283
0.00289332
0.00285387
0.00281472
0.00277622
0.00273869
0.00270253
0.00266808
0.00263602
0.00260705
0.00258208
0.00256208
0.00254709
0.00253678
0.00253058
0.00252762
0.00252683
0.002527
0.00424395
0.00424366
0.00424502
0.0042501
0.00426097
0.00427917
0.00430586
0.00434145
0.00438528
0.00443559
0.00449069
0.0045494
0.00461082
0.00467416
0.0047389
0.0048045
0.00487047
0.00493632
0.00500159
0.00506629
0.00513041
0.005194
0.00525718
0.00532
0.00538248
0.00544472
0.00550675
0.0055687
0.00563041
0.0056917
0.00575226
0.00581187
0.00587018
0.00592684
0.00598145
0.00603356
0.0060826
0.00612823
0.00617013
0.00620806
0.00624164
0.00627058
0.00629469
0.00631359
0.00632716
0.00633516
0.00633786
0.00633786
0.00633749
0.00633721
0.00633688
0.00633655
0.00633626
0.00633594
0.00633565
0.00633536
0.00633507
0.00633483
0.00633454
0.0063343
0.00633405
0.0063338
0.00633356
0.00633331
0.00633307
0.00633286
0.00633266
0.00633245
0.00633225
0.00633204
0.00633184
0.00633167
0.00633147
0.0063313
0.00633114
0.00633097
0.00633081
0.00633069
0.00633052
0.0063304
0.00633028
0.00633015
0.00633003
0.00632995
0.00632983
0.00632974
0.00632966
0.00632958
0.0063295
0.00632942
0.00632938
0.00632929
0.00632925
0.00632921
0.00632917
0.00632913
0.00632909
0.00632909
0.00632909
0.00632909
0.00632909
0.00632909
0.00632909
0.00632909
0.00632913
0.00632917
0.00632921
0.00632925
0.00632929
0.00632938
0.00632942
0.0063295
0.00632958
0.00632966
0.00632974
0.00632983
0.00632995
0.00633003
0.00633015
0.00633028
0.0063304
0.00633052
0.00633069
0.00633081
0.00633097
0.00633114
0.0063313
0.00633147
0.00633167
0.00633184
0.00633204
0.00633225
0.00633245
0.00633266
0.00633286
0.00633307
0.00633331
0.00633356
0.0063338
0.00633405
0.0063343
0.00633454
0.00633483
0.00633507
0.00633536
0.00633565
0.00633594
0.00633626
0.00633655
0.00633688
0.00633721
0.00633749
0.00633786
0.00633786
0.00633516
0.00632716
0.00631359
0.00629469
0.00627062
0.00624164
0.00620806
0.00617013
0.00612823
0.0060826
0.00603356
0.00598145
0.00592684
0.00587018
0.00581187
0.00575226
0.0056917
0.00563041
0.0055687
0.00550675
0.00544472
0.00538248
0.00532
0.00525718
0.00519404
0.00513041
0.00506625
0.00500163
0.00493632
0.00487047
0.00480454
0.0047389
0.00467416
0.00461078
0.00454944
0.00449069
0.00443554
0.00438528
0.00434145
0.00430586
0.00427917
0.00426097
0.0042501
0.00424502
0.00424366
0.00424395
0.00598903
0.00598862
0.00599055
0.00599781
0.00601339
0.00603959
0.00607821
0.00612962
0.00619268
0.00626464
0.00634315
0.00642659
0.00651363
0.00660326
0.00669464
0.00678714
0.00688005
0.00697267
0.00706451
0.00715553
0.00724577
0.00733535
0.00742432
0.0075128
0.00760079
0.00768848
0.00777598
0.00786327
0.00795019
0.00803649
0.00812173
0.00820558
0.00828754
0.0083672
0.00844387
0.00851701
0.00858585
0.00864989
0.00870869
0.00876186
0.00880893
0.00884956
0.00888335
0.00890987
0.0089289
0.00894013
0.00894395
0.0089439
0.00894345
0.008943
0.00894255
0.0089421
0.00894169
0.00894124
0.00894083
0.00894042
0.00894005
0.00893964
0.00893927
0.0089389
0.00893853
0.00893821
0.00893788
0.00893751
0.00893722
0.00893689
0.00893657
0.00893628
0.00893599
0.0089357
0.00893546
0.00893521
0.00893493
0.00893468
0.00893447
0.00893423
0.00893402
0.00893382
0.00893361
0.00893345
0.00893324
0.00893308
0.00893292
0.00893275
0.00893263
0.00893251
0.00893234
0.00893226
0.00893214
0.00893206
0.00893193
0.00893185
0.00893181
0.00893173
0.00893169
0.00893165
0.0089316
0.00893156
0.00893156
0.00893156
0.00893156
0.00893156
0.00893156
0.0089316
0.00893165
0.00893169
0.00893173
0.00893181
0.00893185
0.00893193
0.00893206
0.00893214
0.00893226
0.00893234
0.00893251
0.00893263
0.00893275
0.00893292
0.00893308
0.00893324
0.00893345
0.00893361
0.00893382
0.00893402
0.00893423
0.00893447
0.00893468
0.00893493
0.00893521
0.00893546
0.0089357
0.00893599
0.00893628
0.00893657
0.00893689
0.00893722
0.00893755
0.00893788
0.00893821
0.00893853
0.0089389
0.00893927
0.00893964
0.00894005
0.00894042
0.00894083
0.00894124
0.00894169
0.0089421
0.00894255
0.008943
0.00894345
0.0089439
0.00894395
0.00894013
0.0089289
0.00890987
0.00888335
0.0088496
0.00880893
0.00876186
0.00870869
0.00864989
0.00858589
0.00851701
0.00844387
0.00836716
0.00828754
0.00820558
0.00812173
0.00803649
0.00795023
0.00786327
0.00777598
0.00768853
0.00760083
0.00751276
0.00742432
0.00733535
0.00724577
0.00715553
0.00706455
0.00697267
0.00688005
0.00678718
0.00669469
0.00660326
0.00651359
0.00642663
0.00634315
0.0062646
0.00619268
0.00612966
0.00607821
0.00603959
0.00601339
0.00599781
0.00599055
0.00598862
0.00598903
0.00776269
0.0077622
0.00776466
0.00777417
0.00779451
0.00782891
0.00787959
0.00794715
0.00802973
0.00812366
0.00822599
0.00833456
0.0084476
0.00856396
0.00868249
0.00880229
0.00892258
0.00904243
0.00916125
0.009279
0.00939585
0.0095118
0.00962696
0.00974152
0.0098555
0.00996907
0.0100824
0.0101954
0.010308
0.0104197
0.01053
0.0106385
0.0107445
0.0108475
0.0109467
0.0110412
0.0111301
0.0112129
0.0112888
0.0113575
0.0114183
0.0114708
0.0115144
0.0115487
0.0115733
0.0115878
0.0115928
0.0115927
0.0115921
0.0115915
0.0115909
0.0115904
0.0115898
0.0115893
0.0115887
0.0115882
0.0115877
0.0115872
0.0115867
0.0115862
0.0115857
0.0115853
0.0115849
0.0115844
0.011584
0.0115836
0.0115832
0.0115828
0.0115825
0.0115821
0.0115817
0.0115814
0.0115811
0.0115808
0.0115805
0.0115802
0.0115799
0.0115796
0.0115793
0.0115791
0.0115789
0.0115786
0.0115784
0.0115782
0.0115781
0.0115779
0.0115777
0.0115776
0.0115775
0.0115773
0.0115772
0.0115771
0.011577
0.0115769
0.0115768
0.0115768
0.0115768
0.0115767
0.0115767
0.0115767
0.0115767
0.0115767
0.0115767
0.0115768
0.0115768
0.0115768
0.0115769
0.011577
0.0115771
0.0115772
0.0115773
0.0115775
0.0115776
0.0115777
0.0115779
0.0115781
0.0115782
0.0115784
0.0115786
0.0115789
0.0115791
0.0115793
0.0115796
0.0115799
0.0115802
0.0115805
0.0115808
0.0115811
0.0115814
0.0115817
0.0115821
0.0115825
0.0115828
0.0115832
0.0115836
0.011584
0.0115844
0.0115849
0.0115853
0.0115857
0.0115862
0.0115867
0.0115872
0.0115877
0.0115882
0.0115887
0.0115893
0.0115898
0.0115904
0.0115909
0.0115915
0.0115921
0.0115927
0.0115928
0.0115878
0.0115733
0.0115487
0.0115144
0.0114708
0.0114183
0.0113575
0.0112888
0.0112129
0.0111302
0.0110412
0.0109467
0.0108475
0.0107445
0.0106385
0.01053
0.0104197
0.010308
0.0101954
0.0100824
0.00996911
0.0098555
0.00974152
0.00962696
0.0095118
0.00939585
0.009279
0.00916125
0.00904243
0.00892254
0.00880233
0.00868249
0.00856396
0.0084476
0.00833456
0.00822599
0.00812362
0.00802973
0.00794715
0.00787959
0.00782891
0.00779451
0.00777417
0.00776466
0.0077622
0.00776269
0.00956546
0.00956485
0.00956788
0.00957965
0.00960487
0.00964755
0.00971052
0.00979445
0.00989687
0.0100131
0.0101397
0.0102738
0.0104133
0.0105568
0.0107029
0.0108505
0.0109985
0.0111461
0.0112923
0.0114373
0.0115811
0.0117239
0.0118657
0.0120068
0.0121472
0.012287
0.0124266
0.0125658
0.0127045
0.012842
0.0129778
0.0131113
0.0132418
0.0133685
0.0134905
0.0136068
0.0137161
0.0138179
0.0139113
0.0139957
0.0140705
0.014135
0.0141887
0.0142308
0.014261
0.0142789
0.014285
0.0142849
0.0142842
0.0142835
0.0142827
0.014282
0.0142813
0.0142807
0.01428
0.0142794
0.0142787
0.0142781
0.0142775
0.0142769
0.0142764
0.0142758
0.0142753
0.0142747
0.0142742
0.0142737
0.0142732
0.0142727
0.0142723
0.0142718
0.0142714
0.014271
0.0142706
0.0142702
0.0142698
0.0142695
0.0142691
0.0142688
0.0142685
0.0142682
0.0142679
0.0142676
0.0142673
0.0142671
0.0142669
0.0142666
0.0142664
0.0142663
0.0142661
0.014266
0.0142658
0.0142657
0.0142655
0.0142655
0.0142654
0.0142653
0.0142653
0.0142652
0.0142652
0.0142652
0.0142652
0.0142652
0.0142652
0.0142653
0.0142653
0.0142654
0.0142655
0.0142655
0.0142657
0.0142658
0.014266
0.0142661
0.0142663
0.0142664
0.0142666
0.0142669
0.0142671
0.0142673
0.0142676
0.0142679
0.0142682
0.0142685
0.0142688
0.0142691
0.0142695
0.0142698
0.0142702
0.0142706
0.014271
0.0142714
0.0142718
0.0142723
0.0142727
0.0142732
0.0142737
0.0142742
0.0142747
0.0142753
0.0142758
0.0142764
0.0142769
0.0142775
0.0142781
0.0142787
0.0142794
0.01428
0.0142807
0.0142813
0.014282
0.0142827
0.0142835
0.0142842
0.0142849
0.014285
0.0142789
0.014261
0.0142308
0.0141887
0.014135
0.0140705
0.0139957
0.0139113
0.0138179
0.0137162
0.0136068
0.0134905
0.0133685
0.0132418
0.0131113
0.0129778
0.012842
0.0127045
0.0125658
0.0124266
0.012287
0.0121472
0.0120068
0.0118657
0.0117239
0.0115811
0.0114373
0.0112923
0.0111461
0.0109985
0.0108505
0.0107029
0.0105568
0.0104133
0.0102738
0.0101397
0.0100131
0.00989687
0.00979449
0.00971052
0.00964755
0.00960487
0.00957965
0.00956788
0.00956485
0.00956546
0.0113978
0.011397
0.0114007
0.0114147
0.0114449
0.011496
0.0115715
0.011672
0.0117946
0.0119336
0.0120848
0.0122448
0.0124112
0.0125823
0.0127564
0.0129322
0.0131086
0.0132842
0.0134583
0.013631
0.0138022
0.0139723
0.0141412
0.0143092
0.0144764
0.014643
0.0148092
0.014975
0.0151402
0.0153039
0.0154657
0.0156246
0.01578
0.0159308
0.016076
0.0162144
0.0163445
0.0164656
0.0165767
0.0166772
0.0167661
0.0168429
0.0169067
0.0169569
0.0169928
0.017014
0.0170213
0.0170213
0.0170204
0.0170195
0.0170186
0.0170178
0.017017
0.0170162
0.0170154
0.0170146
0.0170139
0.0170132
0.0170124
0.0170117
0.017011
0.0170104
0.0170097
0.0170091
0.0170085
0.0170079
0.0170073
0.0170067
0.0170062
0.0170057
0.0170051
0.0170046
0.0170042
0.0170037
0.0170033
0.0170028
0.0170024
0.017002
0.0170016
0.0170013
0.0170009
0.0170006
0.0170003
0.017
0.0169997
0.0169995
0.0169993
0.016999
0.0169988
0.0169986
0.0169985
0.0169983
0.0169982
0.0169981
0.0169979
0.0169979
0.0169978
0.0169977
0.0169977
0.0169977
0.0169977
0.0169977
0.0169977
0.0169978
0.0169979
0.0169979
0.0169981
0.0169982
0.0169983
0.0169985
0.0169986
0.0169988
0.016999
0.0169993
0.0169995
0.0169997
0.017
0.0170003
0.0170006
0.0170009
0.0170013
0.0170016
0.017002
0.0170024
0.0170028
0.0170033
0.0170037
0.0170042
0.0170046
0.0170051
0.0170057
0.0170062
0.0170067
0.0170073
0.0170079
0.0170085
0.0170091
0.0170097
0.0170104
0.017011
0.0170117
0.0170124
0.0170132
0.0170139
0.0170146
0.0170154
0.0170162
0.017017
0.0170178
0.0170186
0.0170195
0.0170204
0.0170213
0.0170213
0.017014
0.0169928
0.0169569
0.0169067
0.0168429
0.0167661
0.0166772
0.0165767
0.0164656
0.0163445
0.0162144
0.016076
0.0159308
0.01578
0.0156246
0.0154657
0.0153039
0.0151402
0.0149751
0.0148092
0.014643
0.0144764
0.0143092
0.0141411
0.0139723
0.0138022
0.0136309
0.0134584
0.0132842
0.0131086
0.0129323
0.0127564
0.0125823
0.0124112
0.0122448
0.0120848
0.0119336
0.0117946
0.011672
0.0115715
0.011496
0.0114449
0.0114147
0.0114007
0.011397
0.0113978
0.0132601
0.0132592
0.0132635
0.0132799
0.013315
0.0133747
0.0134629
0.0135804
0.0137234
0.0138856
0.0140617
0.0142482
0.0144419
0.014641
0.0148436
0.0150481
0.0152532
0.0154574
0.0156599
0.0158606
0.0160597
0.0162574
0.0164539
0.0166493
0.0168437
0.0170376
0.0172309
0.0173181
0.0174854
0.0176983
0.0179944
0.018
0.018
0.018
0.018
0.018
0.018
0.018
0.018
0.018
0.018
0.018
0.018
0.018
0.018
0.018
0.018
0.018
0.018
0.018
0.018
0.018
0.018
0.018
0.018
0.018
0.018
0.018
0.018
0.018
0.018
0.018
0.018
0.018
0.018
0.018
0.018
0.018
0.018
0.018
0.018
0.018
0.018
0.018
0.018
0.018
0.018
0.018
0.018
0.018
0.018
0.018
0.018
0.018
0.018
0.018
0.018
0.018
0.018
0.018
0.018
0.018
0.018
0.018
0.018
0.018
0.018
0.018
0.018
0.018
0.018
0.018
0.018
0.018
0.018
0.018
0.018
0.018
0.018
0.018
0.018
0.018
0.018
0.018
0.018
0.018
0.018
0.018
0.018
0.018
0.018
0.018
0.018
0.018
0.018
0.018
0.018
0.018
0.018
0.018
0.018
0.018
0.018
0.018
0.018
0.018
0.018
0.018
0.018
0.018
0.018
0.018
0.018
0.018
0.018
0.018
0.018
0.018
0.018
0.018
0.018
0.018
0.018
0.018
0.018
0.018
0.018
0.018
0.018
0.018
0.018
0.018
0.018
0.018
0.018
0.018
0.018
0.018
0.018
0.0179944
0.0176986
0.0174867
0.0173166
0.0172309
0.0170376
0.0168438
0.0166493
0.0164539
0.0162575
0.0160598
0.0158606
0.0156599
0.0154574
0.0152531
0.0150481
0.0148436
0.014641
0.0144419
0.0142482
0.0140618
0.0138856
0.0137234
0.0135804
0.0134629
0.0133747
0.013315
0.0132799
0.0132635
0.0132592
0.0132601
0.0151529
0.015152
0.0151568
0.0151756
0.0152159
0.0152842
0.0153853
0.0155201
0.0156839
0.0158695
0.0160711
0.0162843
0.0161047
0.0159159
0.0158369
0.0158611
0.0159854
0.0161978
0.0164538
0.0167085
0.0169529
0.0171867
0.0174096
0.0176208
0.0178191
0.018
0.018
0.018
0.018
0.018
0.018
0.018
0.018
0.018
0.018
0.018
0.018
0.018
0.018
0.018
0.018
0.018
0.018
0.018
0.018
0.018
0.018
0.018
0.018
0.018
0.018
0.018
0.018
0.018
0.018
0.018
0.018
0.018
0.018
0.018
0.018
0.018
0.018
0.018
0.018
0.018
0.018
0.018
0.018
0.018
0.018
0.018
0.018
0.018
0.018
0.018
0.018
0.018
0.018
0.018
0.018
0.018
0.018
0.018
0.018
0.018
0.018
0.018
0.018
0.018
0.018
0.018
0.018
0.018
0.018
0.018
0.018
0.018
0.018
0.018
0.018
0.018
0.018
0.018
0.018
0.018
0.018
0.018
0.018
0.018
0.018
0.018
0.018
0.018
0.018
0.018
0.018
0.018
0.018
0.018
0.018
0.018
0.018
0.018
0.018
0.018
0.018
0.018
0.018
0.018
0.018
0.018
0.018
0.018
0.018
0.018
0.018
0.018
0.018
0.018
0.018
0.018
0.018
0.018
0.018
0.018
0.018
0.018
0.018
0.018
0.018
0.018
0.018
0.018
0.018
0.018
0.018
0.018
0.018
0.018
0.018
0.018
0.018
0.018
0.018
0.018
0.018
0.018
0.018
0.018
0.018
0.018
0.018
0.018
0.018
0.0178169
0.0176174
0.0174117
0.0171888
0.0169495
0.0167103
0.0164559
0.0161949
0.0159869
0.0158636
0.0158351
0.0159128
0.0161057
0.0162843
0.0160711
0.0158695
0.0156839
0.0155201
0.0153853
0.0152842
0.0152159
0.0151756
0.0151568
0.015152
0.0151529
0.0170768
0.0170757
0.0170812
0.0171024
0.0171478
0.017225
0.0173393
0.0174915
0.0176765
0.017886
0.0175958
0.0171073
0.0167918
0.0166198
0.0165683
0.0166288
0.016797
0.0170594
0.0173672
0.0176726
0.0179661
0.018
0.018
0.018
0.018
0.018
0.018
0.018
0.018
0.018
0.018
0.018
0.018
0.018
0.018
0.018
0.018
0.018
0.018
0.018
0.018
0.018
0.018
0.018
0.018
0.018
0.018
0.018
0.018
0.018
0.018
0.018
0.018
0.018
0.018
0.018
0.018
0.018
0.018
0.018
0.018
0.018
0.018
0.018
0.018
0.018
0.018
0.018
0.018
0.018
0.018
0.018
0.018
0.018
0.018
0.018
0.018
0.018
0.018
0.018
0.018
0.018
0.018
0.018
0.018
0.018
0.018
0.018
0.018
0.018
0.018
0.018
0.018
0.018
0.018
0.018
0.018
0.018
0.018
0.018
0.018
0.018
0.018
0.018
0.018
0.018
0.018
0.018
0.018
0.018
0.018
0.018
0.018
0.018
0.018
0.018
0.018
0.018
0.018
0.018
0.018
0.018
0.018
0.018
0.018
0.018
0.018
0.018
0.018
0.018
0.018
0.018
0.018
0.018
0.018
0.018
0.018
0.018
0.018
0.018
0.018
0.018
0.018
0.018
0.018
0.018
0.018
0.018
0.018
0.018
0.018
0.018
0.018
0.018
0.018
0.018
0.018
0.018
0.018
0.018
0.018
0.018
0.018
0.018
0.018
0.018
0.018
0.018
0.018
0.018
0.018
0.018
0.018
0.018
0.018
0.018
0.018
0.018
0.018
0.0179626
0.0176744
0.0173695
0.0170564
0.0167986
0.0166314
0.0165664
0.0166165
0.0167929
0.0171093
0.0175933
0.017886
0.0176765
0.0174915
0.0173393
0.017225
0.0171478
0.0171024
0.0170812
0.0170757
0.0170768
0.018
0.018
0.018
0.018
0.018
0.018
0.018
0.018
0.018
0.018
0.018
0.018
0.0177188
0.0175717
0.0175535
0.0176539
0.0178673
0.018
0.018
0.018
0.018
0.018
0.018
0.018
0.018
0.018
0.018
0.018
0.018
0.018
0.018
0.018
0.018
0.018
0.018
0.018
0.018
0.018
0.018
0.018
0.018
0.018
0.018
0.018
0.018
0.018
0.018
0.018
0.018
0.018
0.018
0.018
0.018
0.018
0.018
0.018
0.018
0.018
0.018
0.018
0.018
0.018
0.018
0.018
0.018
0.018
0.018
0.018
0.018
0.018
0.018
0.018
0.018
0.018
0.018
0.018
0.018
0.018
0.018
0.018
0.018
0.018
0.018
0.018
0.018
0.018
0.018
0.018
0.018
0.018
0.018
0.018
0.018
0.018
0.018
0.018
0.018
0.018
0.018
0.018
0.018
0.018
0.018
0.018
0.018
0.018
0.018
0.018
0.018
0.018
0.018
0.018
0.018
0.018
0.018
0.018
0.018
0.018
0.018
0.018
0.018
0.018
0.018
0.018
0.018
0.018
0.018
0.018
0.018
0.018
0.018
0.018
0.018
0.018
0.018
0.018
0.018
0.018
0.018
0.018
0.018
0.018
0.018
0.018
0.018
0.018
0.018
0.018
0.018
0.018
0.018
0.018
0.018
0.018
0.018
0.018
0.018
0.018
0.018
0.018
0.018
0.018
0.018
0.018
0.018
0.018
0.018
0.018
0.018
0.018
0.018
0.018
0.018
0.018
0.018
0.018
0.018
0.018
0.018
0.018
0.018
0.018
0.018
0.017869
0.0176567
0.0175515
0.0175683
0.01772
0.018
0.018
0.018
0.018
0.018
0.018
0.018
0.018
0.018
0.018
0.018
0.018
0.018
0.018
0.018
0.018
0.018
0.018
0.018
0.018
0.018
0.018
0.018
0.018
0.018
0.018
0.018
0.018
0.018
0.018
0.018
0.018
0.018
0.018
0.018
0.018
0.018
0.018
0.018
0.018
0.018
0.018
0.018
0.018
0.018
0.018
0.018
0.018
0.018
0.018
0.018
0.018
0.018
0.018
0.018
0.018
0.018
0.018
0.018
0.018
0.018
0.018
0.018
0.018
0.018
0.018
0.018
0.018
0.018
0.018
0.018
0.018
0.018
0.018
0.018
0.018
0.018
0.018
0.018
0.018
0.018
0.018
0.018
0.018
0.018
0.018
0.018
0.018
0.018
0.018
0.018
0.018
0.018
0.018
0.018
0.018
0.018
0.018
0.018
0.018
0.018
0.018
0.018
0.018
0.018
0.018
0.018
0.018
0.018
0.018
0.018
0.018
0.018
0.018
0.018
0.018
0.018
0.018
0.018
0.018
0.018
0.018
0.018
0.018
0.018
0.018
0.018
0.018
0.018
0.018
0.018
0.018
0.018
0.018
0.018
0.018
0.018
0.018
0.018
0.018
0.018
0.018
0.018
0.018
0.018
0.018
0.018
0.018
0.018
0.018
0.018
0.018
0.018
0.018
0.018
0.018
0.018
0.018
0.018
0.018
0.018
0.018
0.018
0.018
0.018
0.018
0.018
0.018
0.018
0.018
0.018
0.018
0.018
0.018
0.018
0.018
0.018
0.018
0.018
0.018
0.018
0.018
0.018
0.018
0.018
0.018
0.018
0.018
0.018
0.018
0.018
0.018
0.018
0.018
0.018
0.018
0.018
0.018
0.018
0.018
0.018
0.018
0.018
0.018
0.018
0.018
0.018
0.018
0.018
0.018
0.018
0.018
0.018
0.018
0.018
0.018
0.018
0.018
0.018
0.018
0.018
0.018
0.018
0.018
0.018
0.018
0.018
0.018
0.018
0.018
0.018
0.018
0.018
0.018
0.018
0.018
0.018
0.018
0.018
0.018
0.018
0.018
0.018
0.018
0.018
0.018
0.018
0.018
0.018
0.018
0.018
0.018
0.018
0.018
0.018
0.018
0.018
0.018
0.018
0.018
0.018
0.018
0.018
0.018
0.018
0.018
0.018
0.018
0.018
0.018
0.018
0.018
0.018
0.018
0.018
0.018
0.018
0.018
0.018
0.018
0.018
0.018
0.018
0.018
0.018
0.018
0.018
0.018
0.018
0.018
0.018
0.018
0.018
0.018
0.018
0.018
0.018
0.018
0.018
0.018
0.018
0.018
0.018
0.018
0.018
0.018
0.018
0.018
0.018
0.018
0.018
0.018
0.018
0.018
0.018
0.018
0.018
0.018
0.018
0.018
0.018
0.018
0.018
0.018
0.018
0.018
0.018
0.018
0.018
0.018
0.018
0.018
0.018
0.018
0.018
0.018
0.018
0.018
0.018
0.018
0.018
0.018
0.018
0.018
0.018
0.018
0.018
0.018
0.018
0.018
0.018
0.018
0.018
0.018
0.018
0.018
0.018
0.018
0.018
0.018
0.018
0.018
0.018
0.018
0.018
0.018
0.018
0.018
0.018
0.018
0.018
0.018
0.018
0.018
0.018
0.018
0.018
0.018
0.018
0.018
0.018
0.018
0.018
0.018
0.018
0.018
0.018
0.018
0.018
0.018
0.018
0.018
0.018
0.018
0.018
0.018
0.018
0.018
0.018
0.018
0.018
0.018
0.018
0.018
0.018
0.018
0.018
0.018
0.018
0.018
0.018
0.018
0.018
0.018
0.018
0.018
0.018
0.018
0.018
0.018
0.018
0.018
0.018
0.018
0.018
0.018
0.018
0.018
0.018
0.018
0.018
0.018
0.018
0.018
0.018
0.018
0.018
0.018
0.018
0.018
0.018
0.018
0.018
0.018
0.018
0.018
0.018
0.018
0.018
0.018
0.018
0.018
0.018
0.018
0.018
0.018
0.018
0.018
0.018
0.018
0.018
0.018
0.018
0.018
0.018
0.018
0.018
0.018
0.018
0.018
0.018
0.018
0.018
0.018
0.018
0.018
0.018
0.018
0.018
0.018
0.018
0.018
0.018
0.018
0.018
0.018
0.018
0.018
0.018
0.018
0.018
0.018
0.018
0.018
0.018
0.018
0.018
0.018
0.018
0.018
0.018
0.018
0.018
0.018
0.018
0.018
0.018
0.018
0.018
0.018
0.018
0.018
0.018
0.018
0.018
0.018
0.018
0.018
0.018
0.018
0.018
0.018
0.018
0.018
0.018
0.018
0.018
0.018
0.018
0.018
0.018
0.018
0.018
0.018
0.018
0.018
0.018
0.018
0.018
0.018
0.018
0.018
0.018
0.018
0.018
0.018
0.018
0.018
0.018
0.018
0.018
0.018
0.018
0.018
0.018
0.018
0.018
0.018
0.018
0.018
0.018
0.018
0.018
0.018
0.018
0.018
0.018
0.018
0.018
0.018
0.018
0.018
0.018
0.018
0.018
0.018
0.018
0.018
0.018
0.018
0.018
0.018
0.018
0.018
0.018
0.018
0.018
0.018
0.018
0.018
0.018
0.018
0.018
0.018
0.018
0.018
0.018
0.018
0.018
0.018
0.018
0.018
0.018
0.018
0.018
0.018
0.018
0.018
0.018
0.018
0.018
0.018
0.018
0.018
0.018
0.018
0.018
0.018
0.018
0.018
0.018
0.018
0.018
0.018
0.018
0.018
0.018
0.018
0.018
0.018
0.018
0.018
0.018
0.018
0.018
0.018
0.018
0.018
0.018
0.018
0.018
0.018
0.018
0.018
0.018
0.018
0.018
0.018
0.018
0.018
0.018
0.018
0.018
0.018
0.018
0.018
0.018
0.018
0.018
0.018
0.018
0.018
0.018
0.018
0.018
0.018
0.018
0.018
0.018
0.018
0.018
0.018
0.018
0.018
0.018
0.018
0.018
0.018
0.018
0.018
0.018
0.018
0.018
0.018
0.018
0.018
0.018
0.018
0.018
0.018
0.018
0.018
0.018
0.018
0.018
0.018
0.018
0.018
0.018
0.018
0.018
0.018
0.018
0.018
0.018
0.018
0.018
0.018
0.018
0.018
0.018
0.018
0.018
0.018
0.018
0.018
0.018
0.018
0.018
0.018
0.018
0.018
0.018
0.018
0.018
0.018
0.018
0.018
0.018
0.018
0.018
0.018
0.018
0.018
0.018
0.018
0.018
0.018
0.018
0.018
0.018
0.018
0.018
0.018
0.018
0.018
0.018
0.018
0.018
0.018
0.018
0.018
0.018
0.018
0.018
0.018
0.018
0.018
0.018
0.018
0.018
0.018
0.018
0.018
0.018
0.018
0.018
0.018
0.018
0.018
0.018
0.018
0.018
0.018
0.018
0.018
0.018
0.018
0.018
0.018
0.018
0.018
0.018
0.018
0.018
0.018
0.018
0.018
0.018
0.018
0.018
0.018
0.018
0.018
0.018
0.018
0.018
0.018
0.018
0.018
0.018
0.018
0.018
0.018
0.018
0.018
0.018
0.018
0.018
0.018
0.018
0.018
0.018
0.018
0.018
0.018
0.018
0.018
0.018
0.018
0.018
0.018
0.018
0.018
0.018
0.018
0.018
0.018
0.018
0.018
0.018
0.018
0.018
0.018
0.018
0.018
0.018
0.018
0.018
0.018
0.018
0.018
0.018
0.018
0.018
0.018
0.018
0.018
0.018
0.018
0.018
0.018
0.018
0.018
0.018
0.018
0.018
0.018
0.018
0.018
0.018
0.018
0.018
0.018
0.018
0.018
0.018
0.018
0.018
0.018
0.018
0.018
0.018
0.018
0.018
0.018
0.018
0.018
0.018
0.018
0.018
0.018
0.018
0.018
0.018
0.018
0.018
0.018
0.018
0.018
0.018
0.018
0.018
0.018
0.018
0.018
0.018
0.018
0.018
0.018
0.018
0.018
0.018
0.018
0.018
0.018
0.018
0.018
0.018
0.018
0.018
0.018
0.018
0.018
0.018
0.018
0.018
0.018
0.018
0.018
0.018
0.018
0.018
0.018
0.018
0.018
0.018
0.018
0.018
0.018
0.018
0.018
0.018
0.018
0.018
0.018
0.018
0.018
0.018
0.018
0.018
0.018
0.018
0.018
0.018
0.018
0.018
0.018
0.018
0.018
0.018
0.018
0.018
0.018
0.018
0.018
0.018
0.018
0.018
0.018
0.018
0.018
0.018
0.018
0.018
0.018
0.018
0.018
0.018
0.018
0.018
0.018
0.018
0.018
0.018
0.018
0.018
0.018
0.018
0.018
0.018
0.018
0.018
0.018
0.018
0.018
0.018
0.018
0.018
0.018
0.018
0.018
0.018
0.018
0.018
0.018
0.018
0.018
0.018
0.018
0.018
0.018
0.018
0.018
0.018
0.018
0.018
0.018
0.018
0.018
0.018
0.018
0.018
0.018
0.018
0.018
0.018
0.018
0.018
0.018
0.018
0.018
0.018
0.018
0.018
0.018
0.018
0.018
0.018
0.018
0.018
0.018
0.018
0.018
0.018
0.018
0.018
0.018
0.018
0.018
0.018
0.018
0.018
0.018
0.018
0.018
0.018
0.018
0.018
0.018
0.018
0.018
0.018
0.018
0.018
0.018
0.018
0.018
0.018
0.018
0.018
0.018
0.018
0.018
0.018
0.018
0.018
0.018
0.018
0.018
0.018
0.018
0.018
0.018
0.018
0.018
0.018
0.018
0.018
0.018
0.018
0.018
0.018
0.018
0.018
0.018
0.018
0.018
0.018
0.018
0.018
0.018
0.018
0.018
0.018
0.018
0.018
0.018
0.018
0.018
0.018
0.018
0.018
0.018
0.018
0.018
0.018
0.018
0.018
0.018
0.018
0.018
0.018
0.018
0.018
0.018
0.018
0.018
0.018
0.018
0.018
0.018
0.018
0.018
0.018
0.018
0.018
0.018
0.018
0.018
0.018
0.018
0.018
0.018
0.018
0.018
0.018
0.018
0.018
0.018
0.018
0.018
0.018
0.018
0.018
0.018
0.018
0.018
0.018
0.018
0.018
0.018
0.018
0.018
0.018
0.018
0.018
0.018
0.018
0.018
0.018
0.018
0.018
0.018
0.018
0.018
0.018
0.018
0.018
0.018
0.018
0.018
0.018
0.018
0.018
0.018
0.018
0.018
0.018
0.018
0.018
0.018
0.018
0.018
0.018
0.018
0.018
0.018
0.018
0.018
0.018
0.018
0.018
0.018
0.018
0.018
0.018
0.018
0.018
0.018
0.018
0.018
0.018
0.018
0.018
0.018
0.018
0.018
0.018
0.018
0.018
0.018
0.018
0.018
0.018
0.018
0.018
0.018
0.018
0.018
0.018
0.018
0.018
0.018
0.018
0.018
0.018
0.018
0.018
0.018
0.018
0.018
0.018
0.018
0.018
0.018
0.018
0.018
0.018
0.018
0.018
0.018
0.018
0.018
0.018
0.018
0.018
0.018
0.018
0.018
0.018
0.018
0.018
0.018
0.018
0.018
0.018
0.018
0.018
0.018
0.018
0.018
0.018
0.018
0.018
0.018
0.018
0.018
0.018
0.018
0.018
0.018
0.018
0.018
0.018
0.018
0.018
0.018
0.018
0.018
0.018
0.018
0.018
0.018
0.018
0.018
0.018
0.018
0.018
0.018
0.018
0.018
0.018
0.018
0.018
0.018
0.018
0.018
0.018
0.018
0.018
0.018
0.018
0.018
0.018
0.018
0.018
0.018
0.018
0.018
0.018
0.018
0.018
0.018
0.018
0.018
0.018
0.018
0.018
0.018
0.018
0.018
0.018
0.018
0.018
0.018
0.018
0.018
0.018
0.018
0.018
0.018
0.018
0.018
0.018
0.018
0.018
0.018
0.018
0.018
0.018
0.018
0.018
0.018
0.018
0.018
0.018
0.018
0.018
0.018
0.018
0.018
0.018
0.018
0.018
0.018
0.018
0.018
0.018
0.018
0.018
0.018
0.018
0.018
0.018
0.018
0.018
0.018
0.018
0.018
0.018
0.018
0.018
0.018
0.018
0.018
0.018
0.018
0.018
0.018
0.018
0.018
0.018
0.018
0.018
0.018
0.018
0.018
0.018
0.018
0.018
0.018
0.018
0.018
0.018
0.018
0.018
0.018
0.018
0.018
0.018
0.018
0.018
0.018
0.018
0.018
0.018
0.018
0.018
0.018
0.018
0.018
0.018
0.018
0.018
0.018
0.018
0.018
0.018
0.018
0.018
0.018
0.018
0.018
0.018
0.018
0.018
0.018
0.018
0.018
0.018
0.018
0.018
0.018
0.018
0.018
0.018
0.018
0.018
0.018
0.018
0.018
0.018
0.018
0.018
0.018
0.018
0.018
0.018
0.018
0.018
0.018
0.018
0.018
0.018
0.018
0.018
0.018
0.018
0.018
0.018
0.018
0.018
0.018
0.018
0.018
0.018
0.018
0.018
0.018
0.018
0.018
0.018
0.018
0.018
0.018
0.018
0.018
0.018
0.018
0.018
0.018
0.018
0.018
0.018
0.018
0.018
0.018
0.018
0.018
0.018
0.018
0.018
0.018
0.018
0.018
0.018
0.018