/*--------------------------------*- C++ -*----------------------------------*\
| =========                 |                                                 |
| \\      /  F ield         | OpenFOAM: The Open Source CFD Toolbox           |
|  \\    /   O peration     | Version:  v2006                                 |
|   \\  /    A nd           | Website:  www.openfoam.com                      |
|    \\/     M anipulation  |                                                 |
\*---------------------------------------------------------------------------*/
FoamFile
{
    version     2.0;
    format      ascii;
    class       volScalarField;
    location    "0";
    object      wallDistance;
}
// * * * * * * * * * * * * * * * * * * * * * * * * * * * * * * * * * * * * * //

dimensions      [0 1 0 0 0 0 0];


internalField   nonuniform List<scalar> 
40000
(
0.00204326
0.00204314
0.00204281
0.00203925
0.00202664
0.00199774
0.00194712
0.00188199
0.00182503
0.00178232
0.00175425
0.00173958
0.00173628
0.00174297
0.00175891
0.00178379
0.00181735
0.00185771
0.00189825
0.00193746
0.00197545
0.0020121
0.00204746
0.00208154
0.00211414
0.00214534
0.0021754
0.00220701
0.00224255
0.00228221
0.00232605
0.00237406
0.00242651
0.00248324
0.0025442
0.00260908
0.00267507
0.00273919
0.00280032
0.00285749
0.00290957
0.00295536
0.0029935
0.00302274
0.00304193
0.00305011
0.00304801
0.00304718
0.00304718
0.00304718
0.00304718
0.00304718
0.00304718
0.00304718
0.00304718
0.00304718
0.00304718
0.00304718
0.00304718
0.00304718
0.00304718
0.00304718
0.00304718
0.00304718
0.00304718
0.00304718
0.00304718
0.00304718
0.00304718
0.00304718
0.00304718
0.00304718
0.00304718
0.00304718
0.00304718
0.00304718
0.00304718
0.00304718
0.00304718
0.00304718
0.00304718
0.00304718
0.00304718
0.00304718
0.00304718
0.00304718
0.00304718
0.00304718
0.00304718
0.00304718
0.00304718
0.00304718
0.00304718
0.00304718
0.00304718
0.00304718
0.00304718
0.00304718
0.00304718
0.00304718
0.00304718
0.00304718
0.00304718
0.00304718
0.00304718
0.00304718
0.00304718
0.00304718
0.00304718
0.00304718
0.00304718
0.00304718
0.00304718
0.00304718
0.00304718
0.00304718
0.00304718
0.00304718
0.00304718
0.00304718
0.00304718
0.00304718
0.00304718
0.00304718
0.00304718
0.00304718
0.00304718
0.00304718
0.00304718
0.00304718
0.00304718
0.00304718
0.00304718
0.00304718
0.00304718
0.00304718
0.00304718
0.00304718
0.00304718
0.00304718
0.00304718
0.00304718
0.00304718
0.00304718
0.00304718
0.00304718
0.00304718
0.00304718
0.00304718
0.00304718
0.00304718
0.00304718
0.00304718
0.00304801
0.00305011
0.00304194
0.00302271
0.00299353
0.00295538
0.0029095
0.00285757
0.00280015
0.00273938
0.00267507
0.00260915
0.0025439
0.00248321
0.00242667
0.00237409
0.00232614
0.00228203
0.00224278
0.002207
0.00217518
0.0021457
0.00211406
0.00208127
0.00204718
0.00201271
0.00197518
0.00193718
0.00189881
0.00185749
0.0018171
0.0017843
0.00175881
0.00174276
0.00173599
0.00174003
0.00175408
0.00178214
0.00182524
0.001882
0.00194707
0.00199775
0.00202663
0.00203926
0.00204281
0.00204314
0.00204326
0.00616341
0.00616301
0.00616492
0.00617214
0.00618728
0.00621242
0.00624898
0.00629775
0.00635866
0.00642933
0.00650751
0.00659149
0.00667976
0.00677128
0.00686516
0.00696061
0.00705691
0.00715325
0.00724873
0.00734328
0.00743696
0.00752984
0.00762204
0.00771363
0.00780469
0.00789536
0.00798573
0.00807597
0.00816599
0.00825544
0.00834397
0.00843115
0.00851655
0.00859963
0.0086798
0.00875639
0.00882858
0.00889574
0.00895744
0.00901324
0.0090627
0.00910539
0.00914086
0.00916874
0.00918869
0.00920045
0.0092044
0.00920436
0.00920387
0.0092034
0.00920294
0.00920249
0.00920205
0.00920161
0.00920119
0.00920077
0.00920036
0.00919997
0.00919958
0.0091992
0.00919883
0.00919847
0.00919812
0.00919777
0.00919744
0.00919712
0.0091968
0.0091965
0.0091962
0.00919592
0.00919564
0.00919537
0.00919511
0.00919486
0.00919462
0.00919439
0.00919417
0.00919396
0.00919375
0.00919356
0.00919337
0.0091932
0.00919303
0.00919287
0.00919273
0.00919259
0.00919246
0.00919234
0.00919223
0.00919212
0.00919203
0.00919195
0.00919187
0.00919181
0.00919175
0.00919171
0.00919167
0.00919164
0.00919162
0.00919162
0.00919162
0.00919162
0.00919164
0.00919167
0.00919171
0.00919175
0.00919181
0.00919187
0.00919195
0.00919203
0.00919212
0.00919223
0.00919234
0.00919246
0.00919259
0.00919273
0.00919287
0.00919303
0.0091932
0.00919337
0.00919356
0.00919375
0.00919396
0.00919417
0.00919439
0.00919462
0.00919486
0.00919511
0.00919537
0.00919564
0.00919592
0.0091962
0.0091965
0.0091968
0.00919712
0.00919744
0.00919777
0.00919812
0.00919847
0.00919883
0.0091992
0.00919958
0.00919997
0.00920036
0.00920077
0.00920119
0.00920161
0.00920205
0.00920249
0.00920294
0.0092034
0.00920387
0.00920436
0.0092044
0.00920045
0.0091887
0.00916874
0.00914086
0.00910539
0.0090627
0.00901324
0.00895743
0.00889575
0.00882859
0.0087564
0.00867979
0.00859961
0.00851654
0.00843115
0.00834398
0.00825543
0.008166
0.00807598
0.00798572
0.00789539
0.0078047
0.00771361
0.007622
0.00752988
0.00743694
0.00734325
0.00724878
0.00715324
0.00705689
0.00696066
0.00686516
0.00677127
0.00667973
0.00659153
0.0065075
0.00642931
0.00635867
0.00629776
0.00624898
0.00621242
0.00618728
0.00617214
0.00616492
0.00616301
0.00616341
0.0103511
0.0103504
0.0103537
0.0103661
0.0103926
0.010437
0.0105021
0.0105889
0.0106958
0.0108185
0.0109529
0.0110961
0.0112459
0.0114004
0.0115583
0.0117183
0.0118792
0.0120398
0.012199
0.0123568
0.0125132
0.0126683
0.0128224
0.0129756
0.013128
0.0132798
0.0134311
0.0135822
0.0137327
0.0138822
0.0140299
0.0141753
0.0143175
0.0144557
0.0145889
0.014716
0.0148356
0.0149469
0.0150491
0.0151416
0.0152235
0.0152941
0.0153529
0.015399
0.0154321
0.0154516
0.0154582
0.0154582
0.0154573
0.0154566
0.0154558
0.015455
0.0154543
0.0154535
0.0154528
0.0154521
0.0154514
0.0154508
0.0154501
0.0154495
0.0154489
0.0154483
0.0154477
0.0154471
0.0154465
0.015446
0.0154455
0.015445
0.0154445
0.015444
0.0154435
0.0154431
0.0154426
0.0154422
0.0154418
0.0154414
0.015441
0.0154407
0.0154403
0.01544
0.0154397
0.0154394
0.0154391
0.0154389
0.0154386
0.0154384
0.0154382
0.015438
0.0154378
0.0154376
0.0154375
0.0154373
0.0154372
0.0154371
0.015437
0.0154369
0.0154368
0.0154368
0.0154368
0.0154368
0.0154368
0.0154368
0.0154368
0.0154368
0.0154369
0.015437
0.0154371
0.0154372
0.0154373
0.0154375
0.0154376
0.0154378
0.015438
0.0154382
0.0154384
0.0154386
0.0154389
0.0154391
0.0154394
0.0154397
0.01544
0.0154403
0.0154407
0.015441
0.0154414
0.0154418
0.0154422
0.0154426
0.0154431
0.0154435
0.015444
0.0154445
0.015445
0.0154455
0.015446
0.0154465
0.0154471
0.0154477
0.0154483
0.0154489
0.0154495
0.0154501
0.0154508
0.0154514
0.0154521
0.0154528
0.0154535
0.0154543
0.015455
0.0154558
0.0154566
0.0154573
0.0154582
0.0154582
0.0154516
0.0154321
0.015399
0.0153529
0.0152942
0.0152235
0.0151416
0.0150491
0.0149469
0.0148356
0.014716
0.0145889
0.0144557
0.0143175
0.0141753
0.0140299
0.0138822
0.0137327
0.0135822
0.0134311
0.0132798
0.013128
0.0129756
0.0128224
0.0126684
0.0125132
0.0123567
0.0121991
0.0120398
0.0118792
0.0117184
0.0115583
0.0114004
0.0112458
0.0110962
0.0109529
0.0108184
0.0106958
0.0105889
0.0105021
0.010437
0.0103926
0.0103661
0.0103537
0.0103504
0.0103511
0.0146074
0.0146064
0.0146111
0.0146288
0.0146668
0.0147307
0.0148249
0.0149503
0.0151041
0.0152796
0.0154711
0.0156746
0.0158869
0.0161055
0.0163284
0.016554
0.0167806
0.0170065
0.0172305
0.0174525
0.0176726
0.0178911
0.0181081
0.0183239
0.0185385
0.0187524
0.0189658
0.0191787
0.0193907
0.0196012
0.0198091
0.0200136
0.0202135
0.0204078
0.0205948
0.0207732
0.0209411
0.0210973
0.0212407
0.0213704
0.0214852
0.0215843
0.0216667
0.0217314
0.0217778
0.0218052
0.0218145
0.0218144
0.0218133
0.0218122
0.0218111
0.02181
0.021809
0.0218079
0.0218069
0.0218059
0.021805
0.021804
0.0218031
0.0218022
0.0218013
0.0218005
0.0217997
0.0217988
0.0217981
0.0217973
0.0217965
0.0217958
0.0217951
0.0217944
0.0217938
0.0217932
0.0217925
0.0217919
0.0217914
0.0217908
0.0217903
0.0217898
0.0217893
0.0217889
0.0217884
0.021788
0.0217876
0.0217872
0.0217869
0.0217866
0.0217862
0.021786
0.0217857
0.0217855
0.0217852
0.021785
0.0217849
0.0217847
0.0217846
0.0217845
0.0217844
0.0217843
0.0217843
0.0217843
0.0217843
0.0217843
0.0217843
0.0217844
0.0217845
0.0217846
0.0217847
0.0217849
0.021785
0.0217852
0.0217855
0.0217857
0.021786
0.0217862
0.0217866
0.0217869
0.0217872
0.0217876
0.021788
0.0217884
0.0217889
0.0217893
0.0217898
0.0217903
0.0217908
0.0217914
0.0217919
0.0217925
0.0217932
0.0217938
0.0217944
0.0217951
0.0217958
0.0217965
0.0217973
0.0217981
0.0217989
0.0217997
0.0218005
0.0218013
0.0218022
0.0218031
0.021804
0.021805
0.0218059
0.0218069
0.0218079
0.021809
0.02181
0.0218111
0.0218122
0.0218133
0.0218144
0.0218145
0.0218052
0.0217778
0.0217314
0.0216667
0.0215844
0.0214852
0.0213704
0.0212407
0.0210973
0.0209412
0.0207732
0.0205948
0.0204077
0.0202135
0.0200136
0.0198091
0.0196012
0.0193908
0.0191787
0.0189658
0.0187525
0.0185386
0.0183238
0.0181081
0.0178911
0.0176726
0.0174525
0.0172306
0.0170065
0.0167806
0.0165541
0.0163285
0.0161055
0.0158868
0.0156747
0.0154711
0.0152795
0.0151041
0.0149504
0.0148249
0.0147307
0.0146668
0.0146288
0.0146111
0.0146064
0.0146074
0.0189334
0.0189322
0.0189382
0.0189614
0.019011
0.0190949
0.0192185
0.0193833
0.0195847
0.0198138
0.0200634
0.0203282
0.0206039
0.0208877
0.0211768
0.021469
0.0217624
0.0220547
0.0223445
0.0226317
0.0229167
0.0231995
0.0234804
0.0237598
0.0240378
0.0243148
0.0245911
0.0248669
0.0251415
0.0254139
0.025683
0.0259476
0.0262062
0.0264574
0.0266992
0.0269297
0.0271467
0.0273485
0.0275337
0.0277012
0.0278496
0.0279776
0.028084
0.0281676
0.0282275
0.0282629
0.028275
0.0282749
0.0282734
0.028272
0.0282706
0.0282692
0.0282678
0.0282665
0.0282652
0.0282639
0.0282627
0.0282614
0.0282602
0.0282591
0.0282579
0.0282568
0.0282558
0.0282547
0.0282537
0.0282527
0.0282517
0.0282508
0.0282499
0.028249
0.0282481
0.0282473
0.0282465
0.0282458
0.028245
0.0282443
0.0282436
0.028243
0.0282423
0.0282417
0.0282412
0.0282406
0.0282401
0.0282396
0.0282392
0.0282388
0.0282384
0.028238
0.0282377
0.0282373
0.0282371
0.0282368
0.0282366
0.0282364
0.0282362
0.0282361
0.028236
0.0282359
0.0282358
0.0282358
0.0282358
0.0282358
0.0282359
0.028236
0.0282361
0.0282362
0.0282364
0.0282366
0.0282368
0.0282371
0.0282373
0.0282377
0.028238
0.0282384
0.0282388
0.0282392
0.0282396
0.0282401
0.0282406
0.0282412
0.0282417
0.0282423
0.028243
0.0282436
0.0282443
0.028245
0.0282458
0.0282465
0.0282473
0.0282481
0.028249
0.0282499
0.0282508
0.0282517
0.0282527
0.0282537
0.0282547
0.0282558
0.0282568
0.0282579
0.0282591
0.0282602
0.0282614
0.0282627
0.0282639
0.0282652
0.0282665
0.0282678
0.0282692
0.0282706
0.028272
0.0282734
0.0282749
0.028275
0.0282629
0.0282275
0.0281676
0.028084
0.0279776
0.0278496
0.0277012
0.0275337
0.0273485
0.0271468
0.0269298
0.0266992
0.0264573
0.0262062
0.0259476
0.025683
0.0254139
0.0251415
0.0248669
0.0245911
0.0243149
0.0240378
0.0237598
0.0234804
0.0231995
0.0229167
0.0226317
0.0223445
0.0220547
0.0217623
0.0214691
0.0211768
0.0208877
0.0206039
0.0203282
0.0200634
0.0198137
0.0195847
0.0193833
0.0192185
0.0190949
0.019011
0.0189614
0.0189382
0.0189322
0.0189334
0.0233304
0.0233289
0.0233363
0.023365
0.0234265
0.0235306
0.0236842
0.0238889
0.0241387
0.0244223
0.024731
0.025058
0.0253983
0.0257482
0.0261046
0.0264646
0.0268257
0.0271855
0.0275423
0.0278959
0.0282467
0.0285948
0.0289408
0.0292848
0.0296272
0.0299684
0.0303087
0.0306483
0.0309865
0.0313219
0.0316532
0.0319788
0.0322971
0.0326061
0.0329037
0.0331872
0.033454
0.0337021
0.0339299
0.0341359
0.0343183
0.0344757
0.0346065
0.0347093
0.034783
0.0348265
0.0348414
0.0348413
0.0348395
0.0348377
0.0348359
0.0348342
0.0348325
0.0348309
0.0348293
0.0348277
0.0348262
0.0348247
0.0348232
0.0348218
0.0348204
0.034819
0.0348177
0.0348164
0.0348151
0.0348139
0.0348127
0.0348115
0.0348104
0.0348093
0.0348083
0.0348073
0.0348063
0.0348053
0.0348044
0.0348036
0.0348027
0.0348019
0.0348011
0.0348004
0.0347997
0.034799
0.0347984
0.0347978
0.0347973
0.0347967
0.0347962
0.0347958
0.0347954
0.034795
0.0347946
0.0347943
0.034794
0.0347938
0.0347936
0.0347934
0.0347933
0.0347932
0.0347931
0.0347931
0.0347931
0.0347931
0.0347932
0.0347933
0.0347934
0.0347936
0.0347938
0.034794
0.0347943
0.0347946
0.034795
0.0347954
0.0347958
0.0347962
0.0347967
0.0347973
0.0347978
0.0347984
0.034799
0.0347997
0.0348004
0.0348011
0.0348019
0.0348027
0.0348036
0.0348044
0.0348053
0.0348063
0.0348073
0.0348083
0.0348093
0.0348104
0.0348115
0.0348127
0.0348139
0.0348151
0.0348164
0.0348177
0.034819
0.0348204
0.0348218
0.0348232
0.0348247
0.0348262
0.0348277
0.0348293
0.0348309
0.0348325
0.0348342
0.0348359
0.0348377
0.0348395
0.0348413
0.0348414
0.0348265
0.034783
0.0347093
0.0346065
0.0344757
0.0343183
0.0341359
0.0339299
0.0337021
0.0334541
0.0331872
0.0329037
0.0326061
0.0322971
0.0319788
0.0316532
0.0313219
0.0309865
0.0306484
0.0303087
0.0299684
0.0296272
0.0292848
0.0289407
0.0285949
0.0282467
0.0278958
0.0275423
0.0271856
0.0268257
0.0264647
0.0261046
0.0257482
0.0253983
0.0250581
0.024731
0.0244223
0.0241387
0.023889
0.0236842
0.0235306
0.0234265
0.023365
0.0233363
0.0233289
0.0233304
0.0277994
0.0277976
0.0278065
0.0278408
0.0279143
0.028039
0.0282231
0.0284684
0.0287673
0.0291064
0.0294751
0.0298654
0.0302713
0.0306885
0.0311131
0.031542
0.0319721
0.0324005
0.0328252
0.0332463
0.033664
0.0340787
0.0344907
0.0349004
0.0353082
0.0357146
0.03612
0.0365245
0.0369273
0.0373267
0.0377212
0.0381089
0.0384878
0.0388557
0.0392098
0.0395472
0.0398647
0.0401599
0.0404309
0.040676
0.040893
0.0410803
0.0412359
0.0413582
0.0414458
0.0414976
0.0415154
0.0415153
0.0415131
0.041511
0.0415089
0.0415068
0.0415048
0.0415029
0.041501
0.0414991
0.0414973
0.0414955
0.0414937
0.041492
0.0414903
0.0414887
0.0414871
0.0414856
0.0414841
0.0414826
0.0414812
0.0414798
0.0414785
0.0414772
0.0414759
0.0414747
0.0414736
0.0414724
0.0414714
0.0414703
0.0414693
0.0414684
0.0414674
0.0414666
0.0414657
0.0414649
0.0414642
0.0414635
0.0414628
0.0414622
0.0414616
0.041461
0.0414605
0.0414601
0.0414597
0.0414593
0.041459
0.0414587
0.0414584
0.0414582
0.041458
0.0414579
0.0414578
0.0414578
0.0414578
0.0414578
0.0414579
0.041458
0.0414582
0.0414584
0.0414587
0.041459
0.0414593
0.0414597
0.0414601
0.0414605
0.041461
0.0414616
0.0414622
0.0414628
0.0414635
0.0414642
0.0414649
0.0414657
0.0414666
0.0414674
0.0414683
0.0414693
0.0414703
0.0414714
0.0414724
0.0414736
0.0414747
0.0414759
0.0414772
0.0414785
0.0414798
0.0414812
0.0414826
0.0414841
0.0414856
0.0414871
0.0414887
0.0414903
0.041492
0.0414937
0.0414955
0.0414973
0.0414991
0.041501
0.0415029
0.0415048
0.0415068
0.0415089
0.041511
0.0415131
0.0415153
0.0415154
0.0414976
0.0414458
0.0413582
0.0412359
0.0410803
0.040893
0.040676
0.0404309
0.0401599
0.0398647
0.0395472
0.0392098
0.0388556
0.0384878
0.0381089
0.0377212
0.0373267
0.0369273
0.0365246
0.03612
0.0357146
0.0353082
0.0349004
0.0344906
0.0340787
0.033664
0.0332462
0.0328253
0.0324005
0.0319721
0.0315421
0.0311132
0.0306885
0.0302712
0.0298654
0.0294751
0.0291064
0.0287673
0.0284684
0.0282231
0.028039
0.0279143
0.0278408
0.0278065
0.0277976
0.0277994
0.0323417
0.0323396
0.0323499
0.0323899
0.0324757
0.0326212
0.0328363
0.0331229
0.0334718
0.0338673
0.0342969
0.0347516
0.0352242
0.0357097
0.0362038
0.0367027
0.0372029
0.0377009
0.0381948
0.0386844
0.0391701
0.0396523
0.0401315
0.040608
0.0410823
0.041555
0.0420265
0.0422393
0.0426474
0.0431667
0.0438887
0.0443395
0.04478
0.0452077
0.0456193
0.0460114
0.0463804
0.0467235
0.0470385
0.0473232
0.0475755
0.0477931
0.047974
0.0481161
0.0482179
0.0482781
0.0482988
0.0482986
0.0482961
0.0482936
0.0482912
0.0482888
0.0482865
0.0482842
0.048282
0.0482798
0.0482777
0.0482756
0.0482736
0.0482716
0.0482696
0.0482677
0.0482659
0.0482641
0.0482623
0.0482606
0.048259
0.0482574
0.0482558
0.0482543
0.0482529
0.0482515
0.0482501
0.0482488
0.0482475
0.0482463
0.0482452
0.0482441
0.048243
0.048242
0.048241
0.0482401
0.0482392
0.0482384
0.0482376
0.0482369
0.0482362
0.0482356
0.048235
0.0482344
0.048234
0.0482335
0.0482331
0.0482328
0.0482325
0.0482323
0.0482321
0.0482319
0.0482318
0.0482318
0.0482318
0.0482318
0.0482319
0.0482321
0.0482323
0.0482325
0.0482328
0.0482331
0.0482335
0.048234
0.0482344
0.048235
0.0482356
0.0482362
0.0482369
0.0482376
0.0482384
0.0482392
0.0482401
0.048241
0.048242
0.048243
0.0482441
0.0482452
0.0482463
0.0482475
0.0482488
0.0482501
0.0482515
0.0482529
0.0482543
0.0482558
0.0482574
0.048259
0.0482606
0.0482623
0.0482641
0.0482659
0.0482677
0.0482696
0.0482716
0.0482736
0.0482756
0.0482777
0.0482798
0.048282
0.0482842
0.0482865
0.0482888
0.0482912
0.0482936
0.0482961
0.0482986
0.0482988
0.0482781
0.0482179
0.0481161
0.0479739
0.0477931
0.0475755
0.0473232
0.0470385
0.0467235
0.0463805
0.0460115
0.0456193
0.0452076
0.04478
0.0443395
0.0438887
0.0431673
0.0426506
0.0422357
0.0420265
0.041555
0.0410824
0.040608
0.0401314
0.0396524
0.0391702
0.0386843
0.0381948
0.037701
0.0372028
0.0367028
0.0362039
0.0357097
0.0352241
0.0347516
0.034297
0.0338672
0.0334718
0.033123
0.0328363
0.0326212
0.0324757
0.0323899
0.0323499
0.0323396
0.0323417
0.0369584
0.036956
0.0369678
0.0370136
0.0371119
0.0372786
0.0375252
0.0378538
0.0382534
0.0387062
0.0391978
0.0397178
0.0392797
0.0388192
0.0386266
0.0386855
0.0389887
0.0395069
0.0401311
0.0407525
0.0413485
0.0419189
0.0424624
0.0429776
0.0434611
0.0439113
0.0443311
0.044762
0.0452742
0.0459047
0.0466616
0.0475486
0.0485792
0.0497643
0.0511159
0.0525816
0.053003
0.0533947
0.0537544
0.0540795
0.0543675
0.054616
0.0548224
0.0549847
0.055101
0.0551697
0.0551933
0.0551932
0.0551903
0.0551875
0.0551847
0.055182
0.0551793
0.0551767
0.0551742
0.0551717
0.0551692
0.0551668
0.0551645
0.0551622
0.05516
0.0551579
0.0551558
0.0551537
0.0551517
0.0551498
0.0551479
0.0551461
0.0551443
0.0551426
0.0551409
0.0551393
0.0551377
0.0551362
0.0551348
0.0551334
0.0551321
0.0551308
0.0551296
0.0551284
0.0551273
0.0551263
0.0551253
0.0551243
0.0551234
0.0551226
0.0551218
0.0551211
0.0551204
0.0551198
0.0551193
0.0551188
0.0551183
0.0551179
0.0551176
0.0551173
0.0551171
0.0551169
0.0551168
0.0551168
0.0551168
0.0551168
0.0551169
0.0551171
0.0551173
0.0551176
0.0551179
0.0551183
0.0551188
0.0551193
0.0551198
0.0551204
0.0551211
0.0551218
0.0551226
0.0551234
0.0551243
0.0551253
0.0551263
0.0551273
0.0551284
0.0551296
0.0551308
0.0551321
0.0551334
0.0551348
0.0551362
0.0551377
0.0551393
0.0551409
0.0551426
0.0551443
0.0551461
0.0551479
0.0551498
0.0551517
0.0551537
0.0551558
0.0551579
0.05516
0.0551622
0.0551645
0.0551668
0.0551692
0.0551717
0.0551742
0.0551767
0.0551793
0.055182
0.0551847
0.0551875
0.0551903
0.0551932
0.0551933
0.0551697
0.055101
0.0549847
0.0548224
0.054616
0.0543675
0.0540795
0.0537543
0.0533947
0.053003
0.0525817
0.0511103
0.0497666
0.0485819
0.0475507
0.0466605
0.0459054
0.0452775
0.0447583
0.0443334
0.0439159
0.0434559
0.0429693
0.0424675
0.0419238
0.0413402
0.0407568
0.0401364
0.0394998
0.0389924
0.0386917
0.0386222
0.0388116
0.0392821
0.0397178
0.0391979
0.0387061
0.0382534
0.0378538
0.0375252
0.0372786
0.0371119
0.0370136
0.0369678
0.036956
0.0369584
0.0416508
0.041648
0.0416614
0.0417131
0.041824
0.0420123
0.0422909
0.0426621
0.0431134
0.0436244
0.0429166
0.0417251
0.0409555
0.0405361
0.0404105
0.0405581
0.0409683
0.0416083
0.0423591
0.043104
0.0438198
0.0445064
0.0451624
0.0457869
0.0463767
0.0469299
0.0474504
0.0479815
0.0485971
0.0493355
0.0502038
0.0512059
0.0523548
0.0536617
0.0551386
0.056807
0.0586441
0.0601752
0.0605803
0.0609464
0.0612708
0.0615506
0.0617832
0.0619659
0.0620969
0.0621743
0.0622009
0.0622007
0.0621975
0.0621943
0.0621912
0.0621881
0.0621851
0.0621822
0.0621793
0.0621765
0.0621737
0.062171
0.0621684
0.0621659
0.0621634
0.0621609
0.0621586
0.0621562
0.062154
0.0621518
0.0621497
0.0621476
0.0621456
0.0621437
0.0621418
0.06214
0.0621382
0.0621366
0.0621349
0.0621334
0.0621319
0.0621304
0.0621291
0.0621277
0.0621265
0.0621253
0.0621242
0.0621231
0.0621221
0.0621212
0.0621203
0.0621195
0.0621187
0.0621181
0.0621174
0.0621169
0.0621164
0.0621159
0.0621156
0.0621152
0.062115
0.0621148
0.0621147
0.0621146
0.0621146
0.0621147
0.0621148
0.062115
0.0621152
0.0621156
0.0621159
0.0621164
0.0621169
0.0621174
0.0621181
0.0621187
0.0621195
0.0621203
0.0621212
0.0621221
0.0621231
0.0621242
0.0621253
0.0621265
0.0621277
0.0621291
0.0621304
0.0621319
0.0621334
0.0621349
0.0621366
0.0621382
0.06214
0.0621418
0.0621437
0.0621456
0.0621476
0.0621497
0.0621518
0.062154
0.0621562
0.0621586
0.0621609
0.0621634
0.0621659
0.0621684
0.062171
0.0621737
0.0621765
0.0621793
0.0621822
0.0621851
0.0621881
0.0621912
0.0621943
0.0621975
0.0622007
0.0622009
0.0621743
0.0620969
0.0619659
0.0617831
0.0615507
0.0612708
0.0609464
0.0605803
0.0601752
0.0586452
0.0568032
0.0551329
0.053664
0.0523577
0.051208
0.0502026
0.0493362
0.0486006
0.0479778
0.0474528
0.0469346
0.0463713
0.0457783
0.0451677
0.0445116
0.0438112
0.0431084
0.0423646
0.0416009
0.0409722
0.0405645
0.0404058
0.040528
0.0409582
0.0417299
0.0429105
0.0436243
0.0431134
0.0426622
0.0422909
0.0420123
0.041824
0.0417131
0.0416614
0.041648
0.0416508
0.04642
0.046417
0.0464319
0.0464896
0.0466134
0.0468236
0.0471347
0.0475493
0.0480531
0.0469036
0.0451375
0.0439494
0.0432166
0.0428578
0.0428134
0.0430584
0.0435789
0.044339
0.0452124
0.0460766
0.0469086
0.047708
0.0484737
0.0492052
0.0498993
0.0505542
0.0511744
0.0518047
0.052521
0.0533625
0.0543356
0.0554441
0.0567006
0.0581164
0.0597039
0.0614842
0.0634343
0.065486
0.0675181
0.067926
0.0682873
0.068599
0.068858
0.0690616
0.0692074
0.0692937
0.0693233
0.0693231
0.0693195
0.0693159
0.0693125
0.069309
0.0693057
0.0693024
0.0692992
0.0692961
0.069293
0.06929
0.0692871
0.0692843
0.0692815
0.0692788
0.0692761
0.0692735
0.069271
0.0692686
0.0692662
0.0692639
0.0692617
0.0692595
0.0692575
0.0692554
0.0692535
0.0692516
0.0692498
0.0692481
0.0692464
0.0692448
0.0692432
0.0692418
0.0692404
0.0692391
0.0692378
0.0692366
0.0692355
0.0692345
0.0692335
0.0692326
0.0692318
0.069231
0.0692303
0.0692297
0.0692291
0.0692286
0.0692282
0.0692278
0.0692276
0.0692274
0.0692272
0.0692272
0.0692272
0.0692272
0.0692274
0.0692276
0.0692278
0.0692282
0.0692286
0.0692291
0.0692297
0.0692303
0.069231
0.0692318
0.0692326
0.0692335
0.0692345
0.0692355
0.0692366
0.0692378
0.0692391
0.0692404
0.0692418
0.0692432
0.0692448
0.0692464
0.0692481
0.0692498
0.0692516
0.0692535
0.0692554
0.0692575
0.0692595
0.0692617
0.0692639
0.0692662
0.0692686
0.069271
0.0692735
0.0692761
0.0692788
0.0692815
0.0692843
0.0692871
0.06929
0.069293
0.0692961
0.0692992
0.0693024
0.0693057
0.069309
0.0693125
0.0693159
0.0693195
0.0693231
0.0693233
0.0692937
0.0692074
0.0690616
0.068858
0.068599
0.0682873
0.067926
0.0675181
0.0654901
0.0634355
0.0614803
0.0596981
0.0581186
0.0567035
0.0554463
0.0543344
0.0533633
0.0525246
0.051801
0.0511769
0.050559
0.0498937
0.0491964
0.0484791
0.0477134
0.0468998
0.0460812
0.0452179
0.0443315
0.043583
0.043065
0.0428085
0.0428495
0.0432194
0.0439543
0.0451311
0.0469046
0.048053
0.0475493
0.0471348
0.0468236
0.0466134
0.0464896
0.0464319
0.046417
0.04642
0.0512675
0.0512642
0.0512806
0.0513443
0.0514812
0.0517138
0.0520579
0.0525166
0.0521452
0.049612
0.0478402
0.0466817
0.0460058
0.0457225
0.045769
0.0461161
0.046747
0.0476232
0.0486133
0.0495915
0.0505346
0.0514424
0.0523138
0.0531487
0.0539441
0.0546983
0.0554162
0.0561434
0.0569572
0.057897
0.0589687
0.0601762
0.0615314
0.0630459
0.0647323
0.0666112
0.0686601
0.0708092
0.0730157
0.0750199
0.0754188
0.0757628
0.0760487
0.0762735
0.0764345
0.0765297
0.0765624
0.0765622
0.0765582
0.0765543
0.0765505
0.0765467
0.076543
0.0765394
0.0765359
0.0765324
0.076529
0.0765257
0.0765225
0.0765193
0.0765163
0.0765133
0.0765103
0.0765075
0.0765047
0.076502
0.0764994
0.0764969
0.0764944
0.076492
0.0764897
0.0764875
0.0764853
0.0764833
0.0764813
0.0764793
0.0764775
0.0764757
0.076474
0.0764724
0.0764709
0.0764694
0.076468
0.0764667
0.0764655
0.0764643
0.0764633
0.0764623
0.0764613
0.0764605
0.0764597
0.076459
0.0764584
0.0764579
0.0764574
0.076457
0.0764567
0.0764565
0.0764563
0.0764563
0.0764563
0.0764563
0.0764565
0.0764567
0.076457
0.0764574
0.0764579
0.0764584
0.076459
0.0764597
0.0764605
0.0764613
0.0764623
0.0764633
0.0764643
0.0764655
0.0764667
0.076468
0.0764694
0.0764709
0.0764724
0.076474
0.0764757
0.0764775
0.0764793
0.0764813
0.0764833
0.0764853
0.0764875
0.0764897
0.076492
0.0764944
0.0764969
0.0764994
0.076502
0.0765047
0.0765075
0.0765103
0.0765133
0.0765163
0.0765193
0.0765225
0.0765257
0.076529
0.0765324
0.0765359
0.0765394
0.076543
0.0765467
0.0765505
0.0765543
0.0765582
0.0765622
0.0765624
0.0765297
0.0764345
0.0762735
0.0760487
0.0757629
0.0754188
0.0750199
0.0730159
0.0708133
0.0686612
0.0666074
0.0647265
0.0630481
0.0615344
0.0601783
0.0589675
0.0578978
0.0569607
0.0561398
0.0554186
0.054703
0.0539385
0.0531399
0.0523191
0.0514478
0.0505258
0.0495961
0.0486189
0.0476156
0.0467511
0.0461227
0.045764
0.0457141
0.0460088
0.0466867
0.0478336
0.049613
0.05215
0.0525166
0.052058
0.0517138
0.0514812
0.0513443
0.0512806
0.0512642
0.0512675
0.0561944
0.0561908
0.0562088
0.0562787
0.0564289
0.0566841
0.0570619
0.0575652
0.0552768
0.0527252
0.0509741
0.0498658
0.0492618
0.0490644
0.0492076
0.0496588
0.0503983
0.0513859
0.052487
0.0535735
0.0546226
0.0556343
0.0566072
0.0575419
0.0584354
0.0592861
0.0600993
0.060921
0.0618291
0.0628632
0.0640285
0.065329
0.0667761
0.0683814
0.0701578
0.0721256
0.0742624
0.0764979
0.0787882
0.0811249
0.0826671
0.0830441
0.0833574
0.0836036
0.08378
0.0838844
0.0839202
0.08392
0.0839156
0.0839113
0.0839071
0.083903
0.083899
0.083895
0.0838911
0.0838873
0.0838836
0.08388
0.0838765
0.083873
0.0838696
0.0838663
0.0838631
0.08386
0.083857
0.083854
0.0838512
0.0838484
0.0838457
0.0838431
0.0838405
0.0838381
0.0838357
0.0838335
0.0838313
0.0838292
0.0838271
0.0838252
0.0838233
0.0838216
0.0838199
0.0838183
0.0838168
0.0838153
0.083814
0.0838127
0.0838115
0.0838104
0.0838094
0.0838085
0.0838077
0.0838069
0.0838062
0.0838056
0.0838051
0.0838047
0.0838044
0.0838041
0.0838039
0.0838039
0.0838039
0.0838039
0.0838041
0.0838044
0.0838047
0.0838051
0.0838056
0.0838062
0.0838069
0.0838077
0.0838085
0.0838094
0.0838104
0.0838115
0.0838127
0.083814
0.0838153
0.0838168
0.0838183
0.0838199
0.0838216
0.0838233
0.0838252
0.0838271
0.0838292
0.0838313
0.0838335
0.0838357
0.0838381
0.0838405
0.0838431
0.0838457
0.0838484
0.0838512
0.083854
0.083857
0.08386
0.0838631
0.0838663
0.0838696
0.083873
0.0838765
0.08388
0.0838836
0.0838873
0.0838911
0.083895
0.083899
0.083903
0.0839071
0.0839113
0.0839156
0.08392
0.0839202
0.0838844
0.0837801
0.0836036
0.0833573
0.0830441
0.0826671
0.0811232
0.0787884
0.076502
0.0742636
0.0721218
0.070152
0.0683835
0.066779
0.0653311
0.0640273
0.0628641
0.0618327
0.0609174
0.0601017
0.0592908
0.0584298
0.0575331
0.0566125
0.0556397
0.0546139
0.0535781
0.0524925
0.0513784
0.0504025
0.0496654
0.0492026
0.0490559
0.0492649
0.0498709
0.0509674
0.0527262
0.0552817
0.0575653
0.0570619
0.0566841
0.0564289
0.0562787
0.0562088
0.0561908
0.0561944
0.0612021
0.0611981
0.0612178
0.0612939
0.0614576
0.0617358
0.0621478
0.0622449
0.0587435
0.0561998
0.0544901
0.0534474
0.052926
0.052821
0.0530643
0.0536197
0.0544654
0.0555599
0.0567666
0.0579565
0.0591073
0.0602186
0.0612895
0.0623207
0.0633095
0.0642541
0.0651605
0.0660745
0.0670743
0.0681993
0.0694544
0.0708434
0.0723773
0.0740677
0.0759277
0.0779772
0.0801941
0.0825077
0.0848734
0.087283
0.0900343
0.0904447
0.0907858
0.0910539
0.091246
0.0913596
0.0913986
0.0913984
0.0913936
0.0913889
0.0913843
0.0913799
0.0913754
0.0913711
0.0913669
0.0913628
0.0913587
0.0913548
0.0913509
0.0913472
0.0913435
0.0913399
0.0913364
0.091333
0.0913297
0.0913265
0.0913234
0.0913204
0.0913174
0.0913146
0.0913118
0.0913092
0.0913066
0.0913041
0.0913017
0.0912994
0.0912972
0.0912951
0.0912931
0.0912912
0.0912893
0.0912876
0.0912859
0.0912844
0.0912829
0.0912815
0.0912802
0.091279
0.0912779
0.0912769
0.091276
0.0912752
0.0912744
0.0912738
0.0912733
0.0912728
0.0912724
0.0912722
0.091272
0.0912719
0.0912719
0.091272
0.0912722
0.0912724
0.0912728
0.0912733
0.0912738
0.0912744
0.0912752
0.091276
0.0912769
0.0912779
0.091279
0.0912802
0.0912815
0.0912829
0.0912844
0.0912859
0.0912876
0.0912893
0.0912912
0.0912931
0.0912951
0.0912972
0.0912994
0.0913017
0.0913041
0.0913066
0.0913092
0.0913118
0.0913146
0.0913174
0.0913204
0.0913234
0.0913265
0.0913297
0.091333
0.0913364
0.0913399
0.0913435
0.0913472
0.0913509
0.0913548
0.0913587
0.0913628
0.0913669
0.0913711
0.0913754
0.0913799
0.0913844
0.0913889
0.0913936
0.0913984
0.0913986
0.0913596
0.091246
0.0910539
0.0907858
0.0904447
0.0900343
0.0872813
0.0848736
0.0825118
0.0801953
0.0779734
0.0759219
0.0740697
0.0723802
0.0708454
0.0694532
0.0682002
0.0670778
0.066071
0.0651629
0.0642588
0.0633039
0.062312
0.0612948
0.060224
0.0590986
0.0579611
0.0567721
0.0555525
0.0544696
0.0536263
0.0530592
0.0528126
0.0529291
0.0534524
0.0544833
0.0562008
0.0587485
0.0622436
0.0621478
0.0617359
0.0614576
0.0612939
0.0612178
0.0611981
0.0612021
0.0662918
0.0662875
0.0663088
0.0663913
0.0665688
0.0668704
0.0673171
0.0660248
0.0625115
0.0599963
0.0583437
0.0573776
0.0569458
0.0569376
0.0572824
0.0579413
0.0588907
0.0600883
0.0613962
0.0626855
0.0639342
0.065142
0.0663079
0.0674331
0.0685146
0.0695512
0.0705488
0.0715533
0.0726428
0.0738564
0.0751984
0.0766726
0.0782897
0.0800613
0.0820004
0.0841265
0.0864179
0.0888036
0.0912387
0.0937148
0.0962253
0.0979666
0.0983359
0.0986263
0.0988343
0.0989573
0.0989996
0.0989993
0.0989942
0.0989891
0.0989841
0.0989793
0.0989745
0.0989698
0.0989652
0.0989608
0.0989564
0.0989521
0.0989479
0.0989439
0.0989399
0.098936
0.0989322
0.0989285
0.098925
0.0989215
0.0989181
0.0989148
0.0989116
0.0989086
0.0989056
0.0989027
0.0988999
0.0988972
0.0988946
0.0988921
0.0988898
0.0988875
0.0988853
0.0988832
0.0988812
0.0988793
0.0988775
0.0988758
0.0988742
0.0988727
0.0988714
0.0988701
0.0988689
0.0988678
0.0988668
0.0988659
0.0988651
0.0988644
0.0988638
0.0988633
0.0988629
0.0988626
0.0988624
0.0988623
0.0988623
0.0988624
0.0988626
0.0988629
0.0988633