/*--------------------------------*- C++ -*----------------------------------*\
| =========                 |                                                 |
| \\      /  F ield         | OpenFOAM: The Open Source CFD Toolbox           |
|  \\    /   O peration     | Version:  v2006                                 |
|   \\  /    A nd           | Website:  www.openfoam.com                      |
|    \\/     M anipulation  |                                                 |
\*---------------------------------------------------------------------------*/
FoamFile
{
    version     2.0;
    format      ascii;
    class       volVectorField;
    location    "0";
    object      C;
}
// * * * * * * * * * * * * * * * * * * * * * * * * * * * * * * * * * * * * * //

dimensions      [0 1 0 0 0 0 0];


internalField   nonuniform List<vector> 
40000
(
(0.0240205 1.00217 0.0267857)
(0.0720628 1.00231 0.0267857)
(0.120097 1.00166 0.0267857)
(0.168056 0.999126 0.0267857)
(0.215749 0.993652 0.0267857)
(0.262811 0.984314 0.0267857)
(0.308723 0.970451 0.0267857)
(0.352987 0.951966 0.0267857)
(0.39545 0.929578 0.0267857)
(0.436287 0.904327 0.0267857)
(0.475787 0.877011 0.0267857)
(0.514234 0.84822 0.0267857)
(0.551875 0.818389 0.0267857)
(0.588941 0.787837 0.0267857)
(0.625626 0.756829 0.0267857)
(0.662122 0.725601 0.0267857)
(0.698613 0.694369 0.0267857)
(0.735262 0.663325 0.0267857)
(0.772146 0.632562 0.0267857)
(0.809257 0.602071 0.0267857)
(0.846572 0.57183 0.0267857)
(0.884067 0.541813 0.0267857)
(0.92172 0.511992 0.0267857)
(0.959507 0.482341 0.0267857)
(0.997401 0.452828 0.0267857)
(1.03538 0.423419 0.0267857)
(1.07341 0.394085 0.0267857)
(1.11151 0.364832 0.0267857)
(1.14972 0.335732 0.0267857)
(1.18813 0.30689 0.0267857)
(1.22682 0.278423 0.0267857)
(1.26587 0.250455 0.0267857)
(1.30537 0.223127 0.0267857)
(1.34541 0.1966 0.0267857)
(1.38608 0.171058 0.0267857)
(1.42748 0.146715 0.0267857)
(1.46968 0.123783 0.0267857)
(1.51269 0.10243 0.0267857)
(1.55651 0.0827896 0.0267857)
(1.60111 0.0649976 0.0267857)
(1.64646 0.049195 0.0267857)
(1.69249 0.0355231 0.0267857)
(1.73914 0.0241178 0.0267857)
(1.7863 0.0151037 0.0267857)
(1.83387 0.00858971 0.0267857)
(1.88172 0.00466274 0.0267857)
(1.92972 0.00320126 0.0267857)
(1.97776 0.00304718 0.0267857)
(2.02581 0.00304718 0.0267857)
(2.07385 0.00304718 0.0267857)
(2.12189 0.00304718 0.0267857)
(2.16993 0.00304718 0.0267857)
(2.21798 0.00304718 0.0267857)
(2.26602 0.00304718 0.0267857)
(2.31406 0.00304718 0.0267857)
(2.36211 0.00304718 0.0267857)
(2.41015 0.00304718 0.0267857)
(2.45819 0.00304718 0.0267857)
(2.50623 0.00304718 0.0267857)
(2.55428 0.00304718 0.0267857)
(2.60232 0.00304718 0.0267857)
(2.65036 0.00304718 0.0267857)
(2.6984 0.00304718 0.0267857)
(2.74645 0.00304718 0.0267857)
(2.79449 0.00304718 0.0267857)
(2.84253 0.00304718 0.0267857)
(2.89057 0.00304718 0.0267857)
(2.93862 0.00304718 0.0267857)
(2.98666 0.00304718 0.0267857)
(3.0347 0.00304718 0.0267857)
(3.08274 0.00304718 0.0267857)
(3.13079 0.00304718 0.0267857)
(3.17883 0.00304718 0.0267857)
(3.22687 0.00304718 0.0267857)
(3.27492 0.00304718 0.0267857)
(3.32296 0.00304718 0.0267857)
(3.371 0.00304718 0.0267857)
(3.41904 0.00304718 0.0267857)
(3.46709 0.00304718 0.0267857)
(3.51513 0.00304718 0.0267857)
(3.56317 0.00304718 0.0267857)
(3.61121 0.00304718 0.0267857)
(3.65925 0.00304718 0.0267857)
(3.7073 0.00304718 0.0267857)
(3.75534 0.00304718 0.0267857)
(3.80338 0.00304718 0.0267857)
(3.85143 0.00304718 0.0267857)
(3.89947 0.00304718 0.0267857)
(3.94751 0.00304718 0.0267857)
(3.99555 0.00304718 0.0267857)
(4.0436 0.00304718 0.0267857)
(4.09164 0.00304718 0.0267857)
(4.13968 0.00304718 0.0267857)
(4.18772 0.00304718 0.0267857)
(4.23577 0.00304718 0.0267857)
(4.28381 0.00304718 0.0267857)
(4.33185 0.00304718 0.0267857)
(4.3799 0.00304718 0.0267857)
(4.42794 0.00304718 0.0267857)
(4.47598 0.00304718 0.0267857)
(4.52402 0.00304718 0.0267857)
(4.57207 0.00304718 0.0267857)
(4.62011 0.00304718 0.0267857)
(4.66815 0.00304718 0.0267857)
(4.71619 0.00304718 0.0267857)
(4.76424 0.00304718 0.0267857)
(4.81228 0.00304718 0.0267857)
(4.86032 0.00304718 0.0267857)
(4.90837 0.00304718 0.0267857)
(4.95641 0.00304718 0.0267857)
(5.00445 0.00304718 0.0267857)
(5.05249 0.00304718 0.0267857)
(5.10054 0.00304718 0.0267857)
(5.14858 0.00304718 0.0267857)
(5.19662 0.00304718 0.0267857)
(5.24466 0.00304718 0.0267857)
(5.29271 0.00304718 0.0267857)
(5.34075 0.00304718 0.0267857)
(5.38879 0.00304718 0.0267857)
(5.43683 0.00304718 0.0267857)
(5.48488 0.00304718 0.0267857)
(5.53292 0.00304718 0.0267857)
(5.58096 0.00304718 0.0267857)
(5.629 0.00304718 0.0267857)
(5.67705 0.00304718 0.0267857)
(5.72509 0.00304718 0.0267857)
(5.77313 0.00304718 0.0267857)
(5.82118 0.00304718 0.0267857)
(5.86922 0.00304718 0.0267857)
(5.91726 0.00304718 0.0267857)
(5.9653 0.00304718 0.0267857)
(6.01335 0.00304718 0.0267857)
(6.06139 0.00304718 0.0267857)
(6.10943 0.00304718 0.0267857)
(6.15747 0.00304718 0.0267857)
(6.20551 0.00304718 0.0267857)
(6.25356 0.00304718 0.0267857)
(6.3016 0.00304718 0.0267857)
(6.34964 0.00304718 0.0267857)
(6.39769 0.00304718 0.0267857)
(6.44573 0.00304718 0.0267857)
(6.49377 0.00304718 0.0267857)
(6.54181 0.00304718 0.0267857)
(6.58986 0.00304718 0.0267857)
(6.6379 0.00304718 0.0267857)
(6.68594 0.00304718 0.0267857)
(6.73398 0.00304718 0.0267857)
(6.78203 0.00304718 0.0267857)
(6.83007 0.00304718 0.0267857)
(6.87811 0.00304718 0.0267857)
(6.92615 0.00304718 0.0267857)
(6.9742 0.00304718 0.0267857)
(7.02224 0.00304718 0.0267857)
(7.07028 0.00320142 0.0267857)
(7.11828 0.00466282 0.0267857)
(7.16614 0.00858877 0.0267857)
(7.2137 0.0151039 0.0267857)
(7.26087 0.0241188 0.0267857)
(7.30751 0.0355222 0.0267857)
(7.35354 0.0491951 0.0267857)
(7.39889 0.0649979 0.0267857)
(7.44349 0.0827912 0.0267857)
(7.48731 0.102432 0.0267857)
(7.53033 0.123781 0.0267857)
(7.57253 0.146712 0.0267857)
(7.61392 0.171058 0.0267857)
(7.65459 0.196604 0.0267857)
(7.69463 0.22313 0.0267857)
(7.73413 0.250456 0.0267857)
(7.77318 0.278422 0.0267857)
(7.81187 0.306891 0.0267857)
(7.85028 0.335731 0.0267857)
(7.8885 0.364829 0.0267857)
(7.92659 0.394084 0.0267857)
(7.96463 0.423416 0.0267857)
(8.00261 0.452822 0.0267857)
(8.0405 0.48234 0.0267857)
(8.07828 0.511997 0.0267857)
(8.11594 0.541814 0.0267857)
(8.15343 0.571827 0.0267857)
(8.19074 0.602074 0.0267857)
(8.22786 0.632562 0.0267857)
(8.26475 0.663322 0.0267857)
(8.30139 0.69437 0.0267857)
(8.33788 0.725599 0.0267857)
(8.37438 0.756824 0.0267857)
(8.41107 0.787835 0.0267857)
(8.44813 0.818393 0.0267857)
(8.48577 0.848221 0.0267857)
(8.52422 0.877008 0.0267857)
(8.56371 0.90433 0.0267857)
(8.60455 0.92958 0.0267857)
(8.64702 0.951964 0.0267857)
(8.69128 0.97045 0.0267857)
(8.73719 0.984314 0.0267857)
(8.78426 0.993652 0.0267857)
(8.83195 0.999127 0.0267857)
(8.87991 1.00166 0.0267857)
(8.92794 1.00231 0.0267857)
(8.97598 1.00217 0.0267857)
(0.0240174 1.00629 0.0267857)
(0.0720536 1.00643 0.0267857)
(0.120082 1.00578 0.0267857)
(0.168035 1.00325 0.0267857)
(0.215722 0.997789 0.0267857)
(0.26278 0.98847 0.0267857)
(0.30869 0.974635 0.0267857)
(0.352955 0.956188 0.0267857)
(0.395424 0.933845 0.0267857)
(0.43627 0.908645 0.0267857)
(0.475781 0.881385 0.0267857)
(0.51424 0.852652 0.0267857)
(0.551896 0.822882 0.0267857)
(0.588978 0.792391 0.0267857)
(0.625681 0.761447 0.0267857)
(0.662194 0.730282 0.0267857)
(0.698702 0.699112 0.0267857)
(0.735368 0.668132 0.0267857)
(0.772268 0.637431 0.0267857)
(0.809396 0.607002 0.0267857)
(0.846726 0.576822 0.0267857)
(0.884236 0.546866 0.0267857)
(0.921904 0.517105 0.0267857)
(0.959705 0.487514 0.0267857)
(0.997614 0.458061 0.0267857)
(1.03561 0.428712 0.0267857)
(1.07365 0.399437 0.0267857)
(1.11177 0.370244 0.0267857)
(1.14999 0.341202 0.0267857)
(1.18842 0.312419 0.0267857)
(1.22712 0.284009 0.0267857)
(1.26618 0.256098 0.0267857)
(1.30569 0.228826 0.0267857)
(1.34574 0.202352 0.0267857)
(1.38642 0.176862 0.0267857)
(1.42782 0.152568 0.0267857)
(1.47003 0.129683 0.0267857)
(1.51304 0.108373 0.0267857)
(1.55687 0.0887725 0.0267857)
(1.60147 0.0710166 0.0267857)
(1.64682 0.055246 0.0267857)
(1.69285 0.0416018 0.0267857)
(1.73949 0.0302196 0.0267857)
(1.78665 0.0212237 0.0267857)
(1.83421 0.0147229 0.0267857)
(1.88206 0.0108039 0.0267857)
(1.93005 0.00934538 0.0267857)
(1.97809 0.00919161 0.0267857)
(2.02612 0.00919161 0.0267857)
(2.07416 0.00919161 0.0267857)
(2.1222 0.00919161 0.0267857)
(2.17023 0.00919161 0.0267857)
(2.21827 0.00919161 0.0267857)
(2.26631 0.00919161 0.0267857)
(2.31434 0.00919161 0.0267857)
(2.36238 0.00919161 0.0267857)
(2.41042 0.00919161 0.0267857)
(2.45845 0.00919161 0.0267857)
(2.50649 0.00919161 0.0267857)
(2.55453 0.00919161 0.0267857)
(2.60256 0.00919161 0.0267857)
(2.6506 0.00919161 0.0267857)
(2.69863 0.00919161 0.0267857)
(2.74667 0.00919161 0.0267857)
(2.79471 0.00919161 0.0267857)
(2.84274 0.00919161 0.0267857)
(2.89078 0.00919161 0.0267857)
(2.93882 0.00919161 0.0267857)
(2.98685 0.00919161 0.0267857)
(3.03489 0.00919161 0.0267857)
(3.08293 0.00919161 0.0267857)
(3.13096 0.00919161 0.0267857)
(3.179 0.00919161 0.0267857)
(3.22704 0.00919161 0.0267857)
(3.27507 0.00919161 0.0267857)
(3.32311 0.00919161 0.0267857)
(3.37115 0.00919161 0.0267857)
(3.41918 0.00919161 0.0267857)
(3.46722 0.00919161 0.0267857)
(3.51525 0.00919161 0.0267857)
(3.56329 0.00919161 0.0267857)
(3.61133 0.00919161 0.0267857)
(3.65936 0.00919161 0.0267857)
(3.7074 0.00919161 0.0267857)
(3.75543 0.00919161 0.0267857)
(3.80347 0.00919161 0.0267857)
(3.85151 0.00919161 0.0267857)
(3.89955 0.00919161 0.0267857)
(3.94758 0.00919161 0.0267857)
(3.99562 0.00919161 0.0267857)
(4.04366 0.00919161 0.0267857)
(4.09169 0.00919161 0.0267857)
(4.13973 0.00919161 0.0267857)
(4.18776 0.00919161 0.0267857)
(4.2358 0.00919161 0.0267857)
(4.28384 0.00919161 0.0267857)
(4.33188 0.00919161 0.0267857)
(4.37991 0.00919161 0.0267857)
(4.42795 0.00919161 0.0267857)
(4.47598 0.00919161 0.0267857)
(4.52402 0.00919161 0.0267857)
(4.57206 0.00919161 0.0267857)
(4.62009 0.00919161 0.0267857)
(4.66813 0.00919161 0.0267857)
(4.71617 0.00919161 0.0267857)
(4.7642 0.00919161 0.0267857)
(4.81224 0.00919161 0.0267857)
(4.86028 0.00919161 0.0267857)
(4.90831 0.00919161 0.0267857)
(4.95635 0.00919161 0.0267857)
(5.00438 0.00919161 0.0267857)
(5.05242 0.00919161 0.0267857)
(5.10046 0.00919161 0.0267857)
(5.14849 0.00919161 0.0267857)
(5.19653 0.00919161 0.0267857)
(5.24457 0.00919161 0.0267857)
(5.2926 0.00919161 0.0267857)
(5.34064 0.00919161 0.0267857)
(5.38868 0.00919161 0.0267857)
(5.43671 0.00919161 0.0267857)
(5.48475 0.00919161 0.0267857)
(5.53279 0.00919161 0.0267857)
(5.58082 0.00919161 0.0267857)
(5.62886 0.00919161 0.0267857)
(5.67689 0.00919161 0.0267857)
(5.72493 0.00919161 0.0267857)
(5.77297 0.00919161 0.0267857)
(5.82101 0.00919161 0.0267857)
(5.86904 0.00919161 0.0267857)
(5.91708 0.00919161 0.0267857)
(5.96511 0.00919161 0.0267857)
(6.01315 0.00919161 0.0267857)
(6.06119 0.00919161 0.0267857)
(6.10922 0.00919161 0.0267857)
(6.15726 0.00919161 0.0267857)
(6.20529 0.00919161 0.0267857)
(6.25333 0.00919161 0.0267857)
(6.30137 0.00919161 0.0267857)
(6.34941 0.00919161 0.0267857)
(6.39744 0.00919161 0.0267857)
(6.44548 0.00919161 0.0267857)
(6.49351 0.00919161 0.0267857)
(6.54155 0.00919161 0.0267857)
(6.58959 0.00919161 0.0267857)
(6.63762 0.00919161 0.0267857)
(6.68566 0.00919161 0.0267857)
(6.7337 0.00919161 0.0267857)
(6.78173 0.00919161 0.0267857)
(6.82977 0.00919161 0.0267857)
(6.87781 0.00919161 0.0267857)
(6.92584 0.00919161 0.0267857)
(6.97388 0.00919161 0.0267857)
(7.02192 0.00919161 0.0267857)
(7.06995 0.00934554 0.0267857)
(7.11794 0.010804 0.0267857)
(7.16579 0.014722 0.0267857)
(7.21336 0.0212239 0.0267857)
(7.26052 0.0302206 0.0267857)
(7.30716 0.0416009 0.0267857)
(7.35319 0.055246 0.0267857)
(7.39853 0.0710168 0.0267857)
(7.44314 0.088774 0.0267857)
(7.48696 0.108375 0.0267857)
(7.52998 0.129681 0.0267857)
(7.57218 0.152565 0.0267857)
(7.61359 0.176862 0.0267857)
(7.65426 0.202356 0.0267857)
(7.69432 0.228829 0.0267857)
(7.73383 0.256099 0.0267857)
(7.77289 0.284009 0.0267857)
(7.81159 0.312419 0.0267857)
(7.85001 0.341201 0.0267857)
(7.88824 0.37024 0.0267857)
(7.92635 0.399436 0.0267857)
(7.9644 0.428709 0.0267857)
(8.0024 0.458056 0.0267857)
(8.0403 0.487513 0.0267857)
(8.07809 0.51711 0.0267857)
(8.11577 0.546867 0.0267857)
(8.15328 0.576819 0.0267857)
(8.1906 0.607005 0.0267857)
(8.22774 0.637431 0.0267857)
(8.26464 0.668129 0.0267857)
(8.3013 0.699114 0.0267857)
(8.33781 0.73028 0.0267857)
(8.37433 0.761441 0.0267857)
(8.41103 0.792389 0.0267857)
(8.4481 0.822885 0.0267857)
(8.48576 0.852653 0.0267857)
(8.52423 0.881382 0.0267857)
(8.56373 0.908648 0.0267857)
(8.60458 0.933848 0.0267857)
(8.64705 0.956186 0.0267857)
(8.69131 0.974634 0.0267857)
(8.73722 0.98847 0.0267857)
(8.78428 0.99779 0.0267857)
(8.83197 1.00325 0.0267857)
(8.87992 1.00578 0.0267857)
(8.92795 1.00643 0.0267857)
(8.97598 1.00629 0.0267857)
(0.0240143 1.01048 0.0267857)
(0.0720442 1.01061 0.0267857)
(0.120066 1.00997 0.0267857)
(0.168013 1.00745 0.0267857)
(0.215694 1.00199 0.0267857)
(0.262748 0.992695 0.0267857)
(0.308657 0.978888 0.0267857)
(0.352924 0.960479 0.0267857)
(0.395397 0.938183 0.0267857)
(0.436252 0.913034 0.0267857)
(0.475774 0.88583 0.0267857)
(0.514247 0.857157 0.0267857)
(0.551918 0.827448 0.0267857)
(0.589017 0.79702 0.0267857)
(0.625736 0.76614 0.0267857)
(0.662266 0.735039 0.0267857)
(0.698793 0.703934 0.0267857)
(0.735476 0.673018 0.0267857)
(0.772393 0.64238 0.0267857)
(0.809536 0.612013 0.0267857)
(0.846882 0.581896 0.0267857)
(0.884408 0.552001 0.0267857)
(0.922091 0.522302 0.0267857)
(0.959907 0.492772 0.0267857)
(0.997831 0.46338 0.0267857)
(1.03584 0.434091 0.0267857)
(1.0739 0.404877 0.0267857)
(1.11202 0.375744 0.0267857)
(1.15027 0.346762 0.0267857)
(1.1887 0.318039 0.0267857)
(1.22742 0.289688 0.0267857)
(1.26649 0.261834 0.0267857)
(1.30601 0.234618 0.0267857)
(1.34607 0.208199 0.0267857)
(1.38676 0.182761 0.0267857)
(1.42817 0.158517 0.0267857)
(1.47038 0.13568 0.0267857)
(1.5134 0.114414 0.0267857)
(1.55723 0.0948534 0.0267857)
(1.60183 0.0771341 0.0267857)
(1.64718 0.0613961 0.0267857)
(1.69321 0.04778 0.0267857)
(1.73984 0.0364213 0.0267857)
(1.787 0.027444 0.0267857)
(1.83456 0.0209566 0.0267857)
(1.8824 0.0170457 0.0267857)
(1.93039 0.0155902 0.0267857)
(1.97842 0.0154368 0.0267857)
(2.02645 0.0154368 0.0267857)
(2.07448 0.0154368 0.0267857)
(2.12251 0.0154368 0.0267857)
(2.17054 0.0154368 0.0267857)
(2.21857 0.0154368 0.0267857)
(2.2666 0.0154368 0.0267857)
(2.31463 0.0154368 0.0267857)
(2.36266 0.0154368 0.0267857)
(2.41069 0.0154368 0.0267857)
(2.45872 0.0154368 0.0267857)
(2.50675 0.0154368 0.0267857)
(2.55478 0.0154368 0.0267857)
(2.60281 0.0154368 0.0267857)
(2.65084 0.0154368 0.0267857)
(2.69887 0.0154368 0.0267857)
(2.7469 0.0154368 0.0267857)
(2.79493 0.0154368 0.0267857)
(2.84296 0.0154368 0.0267857)
(2.89099 0.0154368 0.0267857)
(2.93902 0.0154368 0.0267857)
(2.98705 0.0154368 0.0267857)
(3.03508 0.0154368 0.0267857)
(3.08311 0.0154368 0.0267857)
(3.13114 0.0154368 0.0267857)
(3.17917 0.0154368 0.0267857)
(3.2272 0.0154368 0.0267857)
(3.27523 0.0154368 0.0267857)
(3.32326 0.0154368 0.0267857)
(3.37129 0.0154368 0.0267857)
(3.41932 0.0154368 0.0267857)
(3.46735 0.0154368 0.0267857)
(3.51538 0.0154368 0.0267857)
(3.56341 0.0154368 0.0267857)
(3.61144 0.0154368 0.0267857)
(3.65947 0.0154368 0.0267857)
(3.7075 0.0154368 0.0267857)
(3.75553 0.0154368 0.0267857)
(3.80356 0.0154368 0.0267857)
(3.8516 0.0154368 0.0267857)
(3.89962 0.0154368 0.0267857)
(3.94765 0.0154368 0.0267857)
(3.99569 0.0154368 0.0267857)
(4.04372 0.0154368 0.0267857)
(4.09174 0.0154368 0.0267857)
(4.13978 0.0154368 0.0267857)
(4.18781 0.0154368 0.0267857)
(4.23584 0.0154368 0.0267857)
(4.28387 0.0154368 0.0267857)
(4.3319 0.0154368 0.0267857)
(4.37993 0.0154368 0.0267857)
(4.42796 0.0154368 0.0267857)
(4.47599 0.0154368 0.0267857)
(4.52402 0.0154368 0.0267857)
(4.57205 0.0154368 0.0267857)
(4.62008 0.0154368 0.0267857)
(4.66811 0.0154368 0.0267857)
(4.71614 0.0154368 0.0267857)
(4.76417 0.0154368 0.0267857)
(4.8122 0.0154368 0.0267857)
(4.86023 0.0154368 0.0267857)
(4.90826 0.0154368 0.0267857)
(4.95629 0.0154368 0.0267857)
(5.00432 0.0154368 0.0267857)
(5.05235 0.0154368 0.0267857)
(5.10038 0.0154368 0.0267857)
(5.14841 0.0154368 0.0267857)
(5.19644 0.0154368 0.0267857)
(5.24447 0.0154368 0.0267857)
(5.2925 0.0154368 0.0267857)
(5.34053 0.0154368 0.0267857)
(5.38856 0.0154368 0.0267857)
(5.43659 0.0154368 0.0267857)
(5.48462 0.0154368 0.0267857)
(5.53265 0.0154368 0.0267857)
(5.58068 0.0154368 0.0267857)
(5.62871 0.0154368 0.0267857)
(5.67674 0.0154368 0.0267857)
(5.72477 0.0154368 0.0267857)
(5.7728 0.0154368 0.0267857)
(5.82083 0.0154368 0.0267857)
(5.86886 0.0154368 0.0267857)
(5.91689 0.0154368 0.0267857)
(5.96492 0.0154368 0.0267857)
(6.01295 0.0154368 0.0267857)
(6.06098 0.0154368 0.0267857)
(6.10901 0.0154368 0.0267857)
(6.15704 0.0154368 0.0267857)
(6.20507 0.0154368 0.0267857)
(6.25311 0.0154368 0.0267857)
(6.30114 0.0154368 0.0267857)
(6.34916 0.0154368 0.0267857)
(6.39719 0.0154368 0.0267857)
(6.44522 0.0154368 0.0267857)
(6.49325 0.0154368 0.0267857)
(6.54129 0.0154368 0.0267857)
(6.58932 0.0154368 0.0267857)
(6.63734 0.0154368 0.0267857)
(6.68538 0.0154368 0.0267857)
(6.73341 0.0154368 0.0267857)
(6.78144 0.0154368 0.0267857)
(6.82947 0.0154368 0.0267857)
(6.8775 0.0154368 0.0267857)
(6.92553 0.0154368 0.0267857)
(6.97356 0.0154368 0.0267857)
(7.02159 0.0154368 0.0267857)
(7.06961 0.0155904 0.0267857)
(7.1176 0.0170458 0.0267857)
(7.16545 0.0209557 0.0267857)
(7.21301 0.0274442 0.0267857)
(7.26016 0.0364223 0.0267857)
(7.3068 0.0477791 0.0267857)
(7.35283 0.0613961 0.0267857)
(7.39817 0.0771344 0.0267857)
(7.44277 0.094855 0.0267857)
(7.4866 0.114415 0.0267857)
(7.52962 0.135678 0.0267857)
(7.57183 0.158514 0.0267857)
(7.61324 0.182761 0.0267857)
(7.65393 0.208203 0.0267857)
(7.69399 0.234621 0.0267857)
(7.73351 0.261834 0.0267857)
(7.77259 0.289687 0.0267857)
(7.8113 0.318039 0.0267857)
(7.84974 0.346761 0.0267857)
(7.88798 0.375741 0.0267857)
(7.92611 0.404876 0.0267857)
(7.96417 0.434089 0.0267857)
(8.00218 0.463375 0.0267857)
(8.0401 0.492771 0.0267857)
(8.07791 0.522307 0.0267857)
(8.11559 0.552003 0.0267857)
(8.15312 0.581893 0.0267857)
(8.19046 0.612016 0.0267857)
(8.22761 0.64238 0.0267857)
(8.26453 0.673014 0.0267857)
(8.30121 0.703935 0.0267857)
(8.33774 0.735037 0.0267857)
(8.37427 0.766134 0.0267857)
(8.41099 0.797018 0.0267857)
(8.44808 0.827452 0.0267857)
(8.48575 0.857157 0.0267857)
(8.52423 0.885828 0.0267857)
(8.56375 0.913037 0.0267857)
(8.60461 0.938185 0.0267857)
(8.64708 0.960477 0.0267857)
(8.69135 0.978887 0.0267857)
(8.73726 0.992694 0.0267857)
(8.78431 1.00199 0.0267857)
(8.83199 1.00745 0.0267857)
(8.87994 1.00997 0.0267857)
(8.92796 1.01061 0.0267857)
(8.97599 1.01048 0.0267857)
(0.0240111 1.01473 0.0267857)
(0.0720346 1.01487 0.0267857)
(0.12005 1.01423 0.0267857)
(0.167991 1.01171 0.0267857)
(0.215667 1.00627 0.0267857)
(0.262716 0.996989 0.0267857)
(0.308623 0.983211 0.0267857)
(0.352891 0.964841 0.0267857)
(0.39537 0.942591 0.0267857)
(0.436233 0.917495 0.0267857)
(0.475767 0.890348 0.0267857)
(0.514254 0.861735 0.0267857)
(0.551941 0.832089 0.0267857)
(0.589056 0.801725 0.0267857)
(0.625793 0.770909 0.0267857)
(0.662341 0.739874 0.0267857)
(0.698885 0.708835 0.0267857)
(0.735585 0.677983 0.0267857)
(0.772519 0.64741 0.0267857)
(0.809679 0.617107 0.0267857)
(0.847042 0.587053 0.0267857)
(0.884583 0.557221 0.0267857)
(0.922281 0.527585 0.0267857)
(0.960112 0.498117 0.0267857)
(0.998051 0.468786 0.0267857)
(1.03607 0.439559 0.0267857)
(1.07415 0.410406 0.0267857)
(1.11229 0.381334 0.0267857)
(1.15054 0.352413 0.0267857)
(1.18899 0.32375 0.0267857)
(1.22772 0.295459 0.0267857)
(1.26681 0.267664 0.0267857)
(1.30634 0.240505 0.0267857)
(1.34641 0.214141 0.0267857)
(1.38711 0.188757 0.0267857)
(1.42853 0.164564 0.0267857)
(1.47074 0.141774 0.0267857)
(1.51377 0.120553 0.0267857)
(1.5576 0.101034 0.0267857)
(1.6022 0.083352 0.0267857)
(1.64755 0.067647 0.0267857)
(1.69357 0.0540595 0.0267857)
(1.74021 0.0427247 0.0267857)
(1.78736 0.0337663 0.0267857)
(1.83491 0.0272925 0.0267857)
(1.88275 0.0233898 0.0267857)
(1.93073 0.0219374 0.0267857)
(1.97875 0.0217842 0.0267857)
(2.02678 0.0217842 0.0267857)
(2.0748 0.0217842 0.0267857)
(2.12282 0.0217842 0.0267857)
(2.17085 0.0217842 0.0267857)
(2.21887 0.0217842 0.0267857)
(2.26689 0.0217842 0.0267857)
(2.31492 0.0217842 0.0267857)
(2.36294 0.0217842 0.0267857)
(2.41097 0.0217842 0.0267857)
(2.45899 0.0217842 0.0267857)
(2.50701 0.0217842 0.0267857)
(2.55504 0.0217842 0.0267857)
(2.60306 0.0217842 0.0267857)
(2.65108 0.0217842 0.0267857)
(2.69911 0.0217842 0.0267857)
(2.74713 0.0217842 0.0267857)
(2.79516 0.0217842 0.0267857)
(2.84318 0.0217842 0.0267857)
(2.8912 0.0217842 0.0267857)
(2.93923 0.0217842 0.0267857)
(2.98725 0.0217842 0.0267857)
(3.03528 0.0217842 0.0267857)
(3.0833 0.0217842 0.0267857)
(3.13132 0.0217842 0.0267857)
(3.17935 0.0217842 0.0267857)
(3.22737 0.0217842 0.0267857)
(3.27539 0.0217842 0.0267857)
(3.32342 0.0217842 0.0267857)
(3.37144 0.0217842 0.0267857)
(3.41947 0.0217842 0.0267857)
(3.46749 0.0217842 0.0267857)
(3.51551 0.0217842 0.0267857)
(3.56354 0.0217842 0.0267857)
(3.61156 0.0217842 0.0267857)
(3.65958 0.0217842 0.0267857)
(3.70761 0.0217842 0.0267857)
(3.75563 0.0217842 0.0267857)
(3.80366 0.0217842 0.0267857)
(3.85168 0.0217842 0.0267857)
(3.8997 0.0217842 0.0267857)
(3.94773 0.0217842 0.0267857)
(3.99575 0.0217842 0.0267857)
(4.04378 0.0217842 0.0267857)
(4.0918 0.0217842 0.0267857)
(4.13982 0.0217842 0.0267857)
(4.18785 0.0217842 0.0267857)
(4.23587 0.0217842 0.0267857)
(4.2839 0.0217842 0.0267857)
(4.33192 0.0217842 0.0267857)
(4.37994 0.0217842 0.0267857)
(4.42797 0.0217842 0.0267857)
(4.47599 0.0217842 0.0267857)
(4.52401 0.0217842 0.0267857)
(4.57204 0.0217842 0.0267857)
(4.62006 0.0217842 0.0267857)
(4.66808 0.0217842 0.0267857)
(4.71611 0.0217842 0.0267857)
(4.76413 0.0217842 0.0267857)
(4.81216 0.0217842 0.0267857)
(4.86018 0.0217842 0.0267857)
(4.90821 0.0217842 0.0267857)
(4.95623 0.0217842 0.0267857)
(5.00425 0.0217842 0.0267857)
(5.05228 0.0217842 0.0267857)
(5.1003 0.0217842 0.0267857)
(5.14832 0.0217842 0.0267857)
(5.19635 0.0217842 0.0267857)
(5.24437 0.0217842 0.0267857)
(5.2924 0.0217842 0.0267857)
(5.34042 0.0217842 0.0267857)
(5.38844 0.0217842 0.0267857)
(5.43647 0.0217842 0.0267857)
(5.48449 0.0217842 0.0267857)
(5.53251 0.0217842 0.0267857)
(5.58054 0.0217842 0.0267857)
(5.62856 0.0217842 0.0267857)
(5.67659 0.0217842 0.0267857)
(5.72461 0.0217842 0.0267857)
(5.77263 0.0217842 0.0267857)
(5.82066 0.0217842 0.0267857)
(5.86868 0.0217842 0.0267857)
(5.9167 0.0217842 0.0267857)
(5.96473 0.0217842 0.0267857)
(6.01275 0.0217842 0.0267857)
(6.06078 0.0217842 0.0267857)
(6.1088 0.0217842 0.0267857)
(6.15682 0.0217842 0.0267857)
(6.20485 0.0217842 0.0267857)
(6.25287 0.0217842 0.0267857)
(6.3009 0.0217842 0.0267857)
(6.34892 0.0217842 0.0267857)
(6.39694 0.0217842 0.0267857)
(6.44497 0.0217842 0.0267857)
(6.49299 0.0217842 0.0267857)
(6.54101 0.0217842 0.0267857)
(6.58904 0.0217842 0.0267857)
(6.63706 0.0217842 0.0267857)
(6.68509 0.0217842 0.0267857)
(6.73311 0.0217842 0.0267857)
(6.78113 0.0217842 0.0267857)
(6.82916 0.0217842 0.0267857)
(6.87718 0.0217842 0.0267857)
(6.92521 0.0217842 0.0267857)
(6.97323 0.0217842 0.0267857)
(7.02125 0.0217842 0.0267857)
(7.06927 0.0219375 0.0267857)
(7.11725 0.0233899 0.0267857)
(7.16509 0.0272916 0.0267857)
(7.21265 0.0337665 0.0267857)
(7.2598 0.0427257 0.0267857)
(7.30643 0.0540586 0.0267857)
(7.35246 0.067647 0.0267857)
(7.3978 0.0833522 0.0267857)
(7.44241 0.101036 0.0267857)
(7.48623 0.120555 0.0267857)
(7.52926 0.141772 0.0267857)
(7.57148 0.164561 0.0267857)
(7.6129 0.188757 0.0267857)
(7.65359 0.214145 0.0267857)
(7.69366 0.240507 0.0267857)
(7.7332 0.267664 0.0267857)
(7.77228 0.295458 0.0267857)
(7.81101 0.32375 0.0267857)
(7.84946 0.352413 0.0267857)
(7.88772 0.381331 0.0267857)
(7.92586 0.410405 0.0267857)
(7.96394 0.439556 0.0267857)
(8.00196 0.468781 0.0267857)
(8.03989 0.498115 0.0267857)
(8.07772 0.52759 0.0267857)
(8.11542 0.557222 0.0267857)
(8.15297 0.58705 0.0267857)
(8.19032 0.61711 0.0267857)
(8.22748 0.64741 0.0267857)
(8.26442 0.67798 0.0267857)
(8.30112 0.708836 0.0267857)
(8.33766 0.739872 0.0267857)
(8.37422 0.770904 0.0267857)
(8.41095 0.801723 0.0267857)
(8.44806 0.832093 0.0267857)
(8.48575 0.861736 0.0267857)
(8.52424 0.890346 0.0267857)
(8.56377 0.917498 0.0267857)
(8.60463 0.942593 0.0267857)
(8.64711 0.964839 0.0267857)
(8.69138 0.98321 0.0267857)
(8.73729 0.996988 0.0267857)
(8.78434 1.00627 0.0267857)
(8.83201 1.01171 0.0267857)
(8.87995 1.01423 0.0267857)
(8.92797 1.01487 0.0267857)
(8.97599 1.01473 0.0267857)
(0.0240078 1.01906 0.0267857)
(0.0720249 1.0192 0.0267857)
(0.120034 1.01855 0.0267857)
(0.167969 1.01604 0.0267857)
(0.215639 1.01061 0.0267857)
(0.262684 1.00135 0.0267857)
(0.308589 0.987604 0.0267857)
(0.352858 0.969273 0.0267857)
(0.395343 0.947071 0.0267857)
(0.436215 0.92203 0.0267857)
(0.47576 0.894941 0.0267857)
(0.514261 0.866389 0.0267857)
(0.551963 0.836806 0.0267857)
(0.589095 0.806507 0.0267857)
(0.62585 0.775757 0.0267857)
(0.662416 0.744789 0.0267857)
(0.698978 0.713815 0.0267857)
(0.735697 0.68303 0.0267857)
(0.772648 0.652522 0.0267857)
(0.809825 0.622284 0.0267857)
(0.847203 0.592294 0.0267857)
(0.884761 0.562527 0.0267857)
(0.922475 0.532954 0.0267857)
(0.960321 0.503548 0.0267857)
(0.998274 0.474281 0.0267857)
(1.03631 0.445116 0.0267857)
(1.0744 0.416026 0.0267857)
(1.11256 0.387016 0.0267857)
(1.15083 0.358157 0.0267857)
(1.18929 0.329555 0.0267857)
(1.22803 0.301324 0.0267857)
(1.26713 0.273589 0.0267857)
(1.30667 0.246488 0.0267857)
(1.34675 0.220181 0.0267857)
(1.38746 0.194851 0.0267857)
(1.42889 0.17071 0.0267857)
(1.47111 0.147969 0.0267857)
(1.51414 0.126794 0.0267857)
(1.55797 0.107316 0.0267857)
(1.60258 0.0896717 0.0267857)
(1.64792 0.0740003 0.0267857)
(1.69395 0.060442 0.0267857)
(1.74058 0.0491314 0.0267857)
(1.78772 0.0401922 0.0267857)
(1.83527 0.0337323 0.0267857)
(1.8831 0.0298379 0.0267857)
(1.93108 0.0283886 0.0267857)
(1.97909 0.0282358 0.0267857)
(2.02711 0.0282358 0.0267857)
(2.07513 0.0282358 0.0267857)
(2.12314 0.0282358 0.0267857)
(2.17116 0.0282358 0.0267857)
(2.21918 0.0282358 0.0267857)
(2.2672 0.0282358 0.0267857)
(2.31521 0.0282358 0.0267857)
(2.36323 0.0282358 0.0267857)
(2.41125 0.0282358 0.0267857)
(2.45926 0.0282358 0.0267857)
(2.50728 0.0282358 0.0267857)
(2.5553 0.0282358 0.0267857)
(2.60332 0.0282358 0.0267857)
(2.65133 0.0282358 0.0267857)
(2.69935 0.0282358 0.0267857)
(2.74737 0.0282358 0.0267857)
(2.79539 0.0282358 0.0267857)
(2.8434 0.0282358 0.0267857)
(2.89142 0.0282358 0.0267857)
(2.93944 0.0282358 0.0267857)
(2.98746 0.0282358 0.0267857)
(3.03547 0.0282358 0.0267857)
(3.08349 0.0282358 0.0267857)
(3.13151 0.0282358 0.0267857)
(3.17952 0.0282358 0.0267857)
(3.22754 0.0282358 0.0267857)
(3.27556 0.0282358 0.0267857)
(3.32358 0.0282358 0.0267857)
(3.37159 0.0282358 0.0267857)
(3.41961 0.0282358 0.0267857)
(3.46763 0.0282358 0.0267857)
(3.51565 0.0282358 0.0267857)
(3.56366 0.0282358 0.0267857)
(3.61168 0.0282358 0.0267857)
(3.6597 0.0282358 0.0267857)
(3.70771 0.0282358 0.0267857)
(3.75573 0.0282358 0.0267857)
(3.80375 0.0282358 0.0267857)
(3.85177 0.0282358 0.0267857)
(3.89978 0.0282358 0.0267857)
(3.9478 0.0282358 0.0267857)
(3.99582 0.0282358 0.0267857)
(4.04384 0.0282358 0.0267857)
(4.09185 0.0282358 0.0267857)
(4.13987 0.0282358 0.0267857)
(4.18789 0.0282358 0.0267857)
(4.23591 0.0282358 0.0267857)
(4.28392 0.0282358 0.0267857)
(4.33194 0.0282358 0.0267857)
(4.37996 0.0282358 0.0267857)
(4.42798 0.0282358 0.0267857)
(4.47599 0.0282358 0.0267857)
(4.52401 0.0282358 0.0267857)
(4.57203 0.0282358 0.0267857)
(4.62004 0.0282358 0.0267857)
(4.66806 0.0282358 0.0267857)
(4.71608 0.0282358 0.0267857)
(4.7641 0.0282358 0.0267857)
(4.81211 0.0282358 0.0267857)
(4.86013 0.0282358 0.0267857)
(4.90815 0.0282358 0.0267857)
(4.95617 0.0282358 0.0267857)
(5.00418 0.0282358 0.0267857)
(5.0522 0.0282358 0.0267857)
(5.10022 0.0282358 0.0267857)
(5.14824 0.0282358 0.0267857)
(5.19625 0.0282358 0.0267857)
(5.24427 0.0282358 0.0267857)
(5.29229 0.0282358 0.0267857)
(5.34031 0.0282358 0.0267857)
(5.38832 0.0282358 0.0267857)
(5.43634 0.0282358 0.0267857)
(5.48436 0.0282358 0.0267857)
(5.53237 0.0282358 0.0267857)
(5.58039 0.0282358 0.0267857)
(5.62841 0.0282358 0.0267857)
(5.67643 0.0282358 0.0267857)
(5.72444 0.0282358 0.0267857)
(5.77246 0.0282358 0.0267857)
(5.82048 0.0282358 0.0267857)
(5.8685 0.0282358 0.0267857)
(5.91651 0.0282358 0.0267857)
(5.96453 0.0282358 0.0267857)
(6.01255 0.0282358 0.0267857)
(6.06057 0.0282358 0.0267857)
(6.10858 0.0282358 0.0267857)
(6.1566 0.0282358 0.0267857)
(6.20462 0.0282358 0.0267857)
(6.25264 0.0282358 0.0267857)
(6.30065 0.0282358 0.0267857)
(6.34867 0.0282358 0.0267857)
(6.39669 0.0282358 0.0267857)
(6.4447 0.0282358 0.0267857)
(6.49272 0.0282358 0.0267857)
(6.54074 0.0282358 0.0267857)
(6.58876 0.0282358 0.0267857)
(6.63677 0.0282358 0.0267857)
(6.68479 0.0282358 0.0267857)
(6.73281 0.0282358 0.0267857)
(6.78083 0.0282358 0.0267857)
(6.82884 0.0282358 0.0267857)
(6.87686 0.0282358 0.0267857)
(6.92488 0.0282358 0.0267857)
(6.9729 0.0282358 0.0267857)
(7.02091 0.0282358 0.0267857)
(7.06893 0.0283887 0.0267857)
(7.1169 0.029838 0.0267857)
(7.16473 0.0337313 0.0267857)
(7.21228 0.0401924 0.0267857)
(7.25943 0.0491324 0.0267857)
(7.30606 0.0604411 0.0267857)
(7.35208 0.0740004 0.0267857)
(7.39743 0.0896719 0.0267857)
(7.44203 0.107317 0.0267857)
(7.48586 0.126795 0.0267857)
(7.52889 0.147967 0.0267857)
(7.57111 0.170707 0.0267857)
(7.61254 0.194851 0.0267857)
(7.65325 0.220185 0.0267857)
(7.69333 0.246491 0.0267857)
(7.73287 0.273589 0.0267857)
(7.77197 0.301324 0.0267857)
(7.81071 0.329556 0.0267857)
(7.84918 0.358156 0.0267857)
(7.88745 0.387013 0.0267857)
(7.9256 0.416025 0.0267857)
(7.9637 0.445114 0.0267857)
(8.00174 0.474275 0.0267857)
(8.03968 0.503547 0.0267857)
(8.07752 0.532958 0.0267857)