/*--------------------------------*- C++ -*----------------------------------*\
| =========                 |                                                 |
| \\      /  F ield         | OpenFOAM: The Open Source CFD Toolbox           |
|  \\    /   O peration     | Version:  v2006                                 |
|   \\  /    A nd           | Website:  www.openfoam.com                      |
|    \\/     M anipulation  |                                                 |
\*---------------------------------------------------------------------------*/
FoamFile
{
    version     2.0;
    format      ascii;
    class       volVectorField;
    location    "2000";
    object      U;
}
// * * * * * * * * * * * * * * * * * * * * * * * * * * * * * * * * * * * * * //

dimensions      [0 1 -1 0 0 0 0];


internalField   nonuniform List<vector> 
40000
(
(0.0115723 6.1282e-05 0)
(0.0116274 3.791e-06 -3.57746e-24)
(0.0115935 -0.000317505 2.21245e-22)
(0.0111933 -0.000868712 0)
(0.0100508 -0.0015084 1.87027e-21)
(0.0081076 -0.00197647 -3.17683e-21)
(0.00554888 -0.00198236 2.42031e-21)
(0.00294882 -0.00141538 -5.17671e-24)
(0.00107443 -0.000646403 1.71115e-22)
(-3.1484e-05 -1.06097e-05 -8.41282e-20)
(-0.000674326 0.0004544 -1.16204e-25)
(-0.0010042 0.00074598 -1.31405e-19)
(-0.00117697 0.000926162 -1.50482e-19)
(-0.00124822 0.0010203 1.67307e-19)
(-0.001273 0.00106398 2.14457e-23)
(-0.00127062 0.0010718 4.92193e-23)
(-0.00126225 0.00106116 -5.01365e-23)
(-0.00125747 0.00104338 -2.23673e-19)
(-0.00125607 0.00102732 4.73394e-19)
(-0.00125075 0.00100958 -2.48981e-19)
(-0.00124442 0.000992441 -2.60606e-19)
(-0.0012373 0.000976233 1.34226e-22)
(-0.00122944 0.000961067 -2.82392e-19)
(-0.00122206 0.000947747 -2.83421e-22)
(-0.0012137 0.000935501 0)
(-0.00120414 0.000923937 3.08057e-22)
(-0.00119051 0.000910581 -3.12322e-22)
(-0.00117337 0.000892718 3.31611e-19)
(-0.00115715 0.00087093 -4.63306e-24)
(-0.00114326 0.000846094 3.42325e-22)
(-0.00113144 0.000818073 3.57817e-22)
(-0.0011215 0.000786659 4.31631e-24)
(-0.00111345 0.000751486 4.23317e-24)
(-0.00110763 0.00071267 -3.9065e-22)
(-0.00110407 0.000669803 -7.92959e-23)
(-0.00110545 0.000623896 0)
(-0.00111306 0.000577096 0)
(-0.00112337 0.000529288 0)
(-0.00113508 0.00047986 -2.36642e-19)
(-0.00114757 0.000428272 -4.89883e-19)
(-0.00116247 0.00037501 0)
(-0.00117809 0.000319085 -2.56965e-19)
(-0.00120095 0.000262135 -1.31133e-19)
(-0.00122434 0.000201581 -3.26554e-24)
(-0.0012695 0.000140525 -1.34168e-19)
(-0.00131875 7.35382e-05 6.62005e-20)
(-0.00146071 1.3802e-05 -8.81704e-24)
(-0.00162567 2.75115e-06 2.16723e-21)
(-0.00171672 2.6841e-06 -1.08899e-21)
(-0.00180696 2.11492e-06 0)
(-0.00187637 2.172e-06 0)
(-0.00194487 1.94772e-06 0)
(-0.00200388 1.93928e-06 0)
(-0.00206059 1.82158e-06 0)
(-0.0021118 1.78467e-06 0)
(-0.00216024 1.70656e-06 5.91286e-22)
(-0.00220479 1.65925e-06 6.38076e-24)
(-0.00224654 1.59658e-06 -5.97667e-22)
(-0.00228512 1.54574e-06 6.10742e-22)
(-0.00232101 1.48919e-06 -6.10742e-22)
(-0.00235411 1.43718e-06 0)
(-0.00238465 1.38303e-06 0)
(-0.00241263 1.33061e-06 0)
(-0.00243818 1.27734e-06 0)
(-0.00246133 1.22471e-06 0)
(-0.00248217 1.17174e-06 -6.5938e-22)
(-0.00250074 1.11899e-06 6.59379e-22)
(-0.00251711 1.06609e-06 -2.43851e-33)
(-0.00253131 1.01327e-06 -2.4653e-33)
(-0.00254342 9.60389e-07 0)
(-0.00255346 9.07562e-07 0)
(-0.0025615 8.54736e-07 0)
(-0.00256757 8.0198e-07 0)
(-0.00257172 7.49293e-07 0)
(-0.00257401 6.96782e-07 0)
(-0.00257446 6.44384e-07 0)
(-0.00257312 5.9203e-07 0)
(-0.00257003 5.39761e-07 3.75127e-22)
(-0.00256522 4.87664e-07 -3.75127e-22)
(-0.00255874 4.35759e-07 0)
(-0.00255061 3.8411e-07 -3.86942e-22)
(-0.00254088 3.32727e-07 7.77875e-22)
(-0.00252959 2.8166e-07 -3.90879e-22)
(-0.00251677 2.30934e-07 3.9886e-22)
(-0.00250247 1.80595e-07 -3.98852e-22)
(-0.00248672 1.3067e-07 0)
(-0.00246956 8.12154e-08 0)
(-0.00245104 3.2269e-08 0)
(-0.00243119 -1.61402e-08 0)
(-0.00241005 -6.39785e-08 0)
(-0.00238768 -1.11176e-07 -2.13398e-22)
(-0.0023641 -1.57739e-07 2.13386e-22)
(-0.00233935 -2.03594e-07 -2.17355e-22)
(-0.0023135 -2.48736e-07 2.17379e-22)
(-0.00228657 -2.93106e-07 0)
(-0.00225861 -3.36692e-07 0)
(-0.00222967 -3.79427e-07 5.63235e-23)
(-0.00219979 -4.21308e-07 -5.63248e-23)
(-0.00216902 -4.62295e-07 0)
(-0.0021374 -5.02357e-07 0)
(-0.00210498 -5.41476e-07 0)
(-0.0020718 -5.79639e-07 0)
(-0.00203792 -6.16792e-07 0)
(-0.00200338 -6.52942e-07 0)
(-0.00196823 -6.88078e-07 0)
(-0.00193251 -7.22153e-07 0)
(-0.00189628 -7.55165e-07 -2.44665e-22)
(-0.00185957 -7.87139e-07 2.44639e-22)
(-0.00182245 -8.1796e-07 2.48422e-22)
(-0.00178495 -8.47753e-07 1.8688e-24)
(-0.00174712 -8.76395e-07 -2.50278e-22)
(-0.00170902 -9.03972e-07 0)
(-0.00167069 -9.30436e-07 0)
(-0.00163217 -9.55765e-07 0)
(-0.00159352 -9.8007e-07 0)
(-0.00155477 -1.00318e-06 0)
(-0.00151598 -1.02528e-06 -5.26148e-22)
(-0.00147719 -1.04622e-06 5.26102e-22)
(-0.00143845 -1.06612e-06 5.33245e-22)
(-0.00139979 -1.08492e-06 -5.33244e-22)
(-0.00136127 -1.10268e-06 0)
(-0.00132293 -1.11942e-06 0)
(-0.0012848 -1.13509e-06 0)
(-0.00124694 -1.1498e-06 0)
(-0.00120938 -1.16346e-06 0)
(-0.00117216 -1.17619e-06 -1.11455e-21)
(-0.00113532 -1.18795e-06 1.11448e-21)
(-0.00109891 -1.19878e-06 -1.12786e-21)
(-0.00106295 -1.20868e-06 2.26242e-21)
(-0.00102749 -1.21771e-06 -1.13439e-21)
(-0.000992561 -1.22587e-06 0)
(-0.000958197 -1.23317e-06 0)
(-0.000924433 -1.23966e-06 0)
(-0.000891304 -1.24533e-06 0)
(-0.000858841 -1.25024e-06 0)
(-0.000827076 -1.25432e-06 -6.74012e-17)
(-0.000796037 -1.25774e-06 -6.83818e-17)
(-0.000765768 -1.26018e-06 0)
(-0.000736289 -1.26212e-06 6.84368e-17)
(-0.000707656 -1.2626e-06 6.94733e-17)
(-0.000679879 -1.26309e-06 -1.20373e-21)
(-0.000653059 -1.26083e-06 0)
(-0.000627172 -1.2599e-06 0)
(-0.000602415 -1.25327e-06 0)
(-0.000578685 -1.25134e-06 0)
(-0.000556369 -1.23723e-06 0)
(-0.000535158 -1.23659e-06 0)
(-0.000515797 -1.21024e-06 1.25064e-21)
(-0.000497473 -1.21889e-06 -1.25049e-21)
(-0.000481419 -1.17673e-06 0)
(-0.000465837 -1.21912e-06 0)
(-0.000451704 -1.18696e-06 0)
(-0.000435548 -1.39625e-06 0)
(-0.000408283 -4.10699e-06 -2.56905e-21)
(-0.000382541 -2.17744e-05 -1.59715e-19)
(-0.00036779 -4.06583e-05 -5.16158e-21)
(-0.000354332 -5.82219e-05 2.56892e-21)
(-0.000337341 -7.31302e-05 0)
(-0.000318025 -8.54153e-05 1.2965e-18)
(-0.000293503 -9.37297e-05 6.4466e-19)
(-0.000264643 -9.74705e-05 2.47898e-21)
(-0.000229523 -9.55325e-05 -6.25773e-19)
(-0.000188066 -8.67155e-05 1.58804e-23)
(-0.000138939 -6.98848e-05 5.98296e-19)
(-8.10344e-05 -4.32422e-05 2.25991e-21)
(-1.26197e-05 -4.86871e-06 1.15264e-18)
(7.02898e-05 4.82311e-05 0)
(0.000168537 0.000116951 -2.21827e-18)
(0.000285813 0.000203774 -1.09008e-18)
(0.000424769 0.000310413 -1.07238e-18)
(0.000587166 0.000437922 -1.05638e-18)
(0.000779173 0.000589213 1.0419e-18)
(0.000997183 0.000761578 1.02943e-18)
(0.00125033 0.000958838 -9.91405e-22)
(0.00152587 0.00117243 0)
(0.00182121 0.00140575 9.90897e-19)
(0.00213732 0.00166049 -1.05287e-24)
(0.00247915 0.00194105 9.56148e-19)
(0.00284395 0.00224568 -9.37777e-19)
(0.00322661 0.00257928 0)
(0.00364885 0.00295376 0)
(0.00411039 0.00336989 -8.65922e-19)
(0.00459976 0.00383425 0)
(0.00520017 0.00439679 0)
(0.00595115 0.00505227 7.74269e-19)
(0.0068794 0.00580472 0)
(0.00803464 0.00665301 -7.04263e-19)
(0.00946493 0.00758898 0)
(0.011239 0.00858448 -1.24164e-18)
(0.01339 0.00957685 0)
(0.0161093 0.0104907 5.01906e-19)
(0.0192401 0.0109793 4.22902e-19)
(0.0226198 0.010679 -1.49017e-21)
(0.0250602 0.00892955 8.98618e-22)
(0.0249523 0.00612461 5.02917e-20)
(0.0228158 0.003484 5.96664e-21)
(0.0197583 0.00158437 1.41588e-25)
(0.0166566 0.000492178 0)
(0.0141252 1.88073e-05 3.84655e-25)
(0.0122931 -4.92023e-05 1.56102e-22)
(0.0350778 0.000238344 -4.502e-26)
(0.0350192 1.83868e-05 5.30504e-24)
(0.0347654 -0.000914623 -3.65836e-22)
(0.0334949 -0.00248321 -4.55461e-22)
(0.0301619 -0.00429448 0)
(0.0245843 -0.00563693 4.81566e-21)
(0.0172466 -0.00571174 -8.32195e-21)
(0.00967952 -0.00418227 -1.99239e-20)
(0.004025 -0.0020212 8.61269e-20)
(0.000546563 -0.000169176 2.54413e-19)
(-0.00153674 0.00122128 0)
(-0.00265868 0.00211618 1.36574e-21)
(-0.00326995 0.00268001 2.28409e-19)
(-0.00355313 0.00298536 6.15066e-23)
(-0.00367481 0.00313488 -3.24124e-23)
(-0.00370211 0.00317367 2.97036e-19)
(-0.00369966 0.00315306 0)
(-0.00369959 0.00310687 3.39281e-19)
(-0.00370478 0.00306249 -5.10813e-22)
(-0.00369753 0.0030123 7.54515e-19)
(-0.00368502 0.00296308 0)
(-0.00366896 0.00291611 0)
(-0.00364965 0.00287192 4.28497e-19)
(-0.00363068 0.00283278 4.37654e-22)
(-0.00360845 0.00279663 -4.59473e-19)
(-0.00358235 0.00276232 4.73312e-19)
(-0.00354494 0.00272315 4.73069e-22)
(-0.00349758 0.00267141 -3.73486e-22)
(-0.00345219 0.0026081 0)
(-0.00341319 0.00253546 0)
(-0.00338029 0.00245314 0)
(-0.00335305 0.00236059 5.5944e-22)
(-0.00333159 0.00225674 5.88477e-19)
(-0.00331689 0.0021419 -1.78658e-21)
(-0.00330919 0.00201504 9.80398e-22)
(-0.00331547 0.00187879 0)
(-0.00333939 0.001739 3.36029e-19)
(-0.00337174 0.00159568 -3.4715e-19)
(-0.00340876 0.00144737 1.40978e-21)
(-0.00344857 0.00129262 3.68337e-19)
(-0.00349564 0.00113274 0)
(-0.00354584 0.000965256 0)
(-0.00361679 0.000794479 1.98275e-19)
(-0.00369249 0.000614259 2.00187e-19)
(-0.00382964 0.000432699 4.12088e-19)
(-0.00398676 0.000239477 -1.58392e-21)
(-0.00438655 7.0091e-05 -1.63101e-21)
(-0.00484714 3.1479e-05 1.63048e-21)
(-0.00511914 2.47789e-05 0)
(-0.00538407 2.0417e-05 1.67955e-21)
(-0.00559139 1.85107e-05 -1.67954e-21)
(-0.0057933 1.6571e-05 8.57079e-22)
(-0.00596851 1.53757e-05 -8.57074e-22)
(-0.00613581 1.41345e-05 0)
(-0.00628727 1.31816e-05 8.84443e-22)
(-0.00643011 1.22261e-05 -8.8444e-22)
(-0.00656156 1.13971e-05 0)
(-0.00668451 1.05835e-05 0)
(-0.00679813 9.83272e-06 -9.23306e-22)
(-0.00690366 9.10124e-06 9.23304e-22)
(-0.00700093 8.40579e-06 -9.43645e-22)
(-0.00709054 7.7288e-06 9.43644e-22)
(-0.00717257 7.07582e-06 0)
(-0.00724734 6.4395e-06 -9.75161e-22)
(-0.007315 5.82148e-06 9.75158e-22)
(-0.00737577 5.21848e-06 9.96778e-22)
(-0.0074298 4.63085e-06 -2.00453e-21)
(-0.00747728 4.05699e-06 2.02658e-21)
(-0.00751835 3.49679e-06 -1.01883e-21)
(-0.00755317 2.94939e-06 -1.04127e-21)
(-0.00758189 2.4146e-06 1.04127e-21)
(-0.00760463 1.89191e-06 0)
(-0.00762155 1.38117e-06 0)
(-0.00763278 8.82258e-07 1.08715e-21)
(-0.00763845 3.9551e-07 -1.08715e-21)
(-0.00763871 -8.0548e-08 0)
(-0.00763365 -5.47324e-07 0)
(-0.00762339 -1.0045e-06 0)
(-0.00760804 -1.4517e-06 0)
(-0.00758771 -1.88887e-06 0)
(-0.00756252 -2.31586e-06 0)
(-0.00753258 -2.73284e-06 0)
(-0.00749802 -3.13964e-06 5.96844e-22)
(-0.00745893 -3.53626e-06 -5.96897e-22)
(-0.00741545 -3.9227e-06 6.08913e-22)
(-0.00736769 -4.29879e-06 -6.08869e-22)
(-0.00731576 -4.66437e-06 0)
(-0.00725978 -5.01947e-06 -3.13511e-22)
(-0.00719989 -5.36393e-06 3.13493e-22)
(-0.00713618 -5.6975e-06 -3.19515e-22)
(-0.00706881 -6.02009e-06 3.19551e-22)
(-0.00699787 -6.33177e-06 -3.25557e-22)
(-0.00692351 -6.63202e-06 6.54083e-22)
(-0.00684585 -6.92097e-06 -4.94373e-22)
(-0.00676502 -7.19845e-06 1.65781e-22)
(-0.00668115 -7.46421e-06 0)
(-0.00659437 -7.7181e-06 -8.51363e-23)
(-0.00650482 -7.9602e-06 -7.43617e-25)
(-0.00641264 -8.19024e-06 1.29183e-22)
(-0.00631796 -8.40807e-06 -4.33118e-23)
(-0.00622091 -8.61379e-06 -4.40496e-23)
(-0.00612164 -8.80718e-06 1.32873e-22)
(-0.00602029 -8.98807e-06 7.30664e-25)
(-0.005917 -9.15664e-06 9.10184e-23)
(-0.0058119 -9.31274e-06 -1.80568e-22)
(-0.00570513 -9.4561e-06 1.83467e-22)
(-0.00559686 -9.58708e-06 -1.8348e-22)
(-0.0054872 -9.70562e-06 -3.72647e-22)
(-0.00537631 -9.81121e-06 3.72671e-22)
(-0.00526433 -9.9047e-06 3.78359e-22)
(-0.00515139 -9.98542e-06 -7.59447e-22)
(-0.00503763 -1.00538e-05 3.81142e-22)
(-0.00492321 -1.01098e-05 -7.73468e-22)
(-0.00480826 -1.01534e-05 7.73435e-22)
(-0.00469291 -1.0185e-05 -7.84394e-22)
(-0.0045773 -1.0204e-05 7.84454e-22)
(-0.00446158 -1.02115e-05 7.95335e-22)
(-0.00434587 -1.02067e-05 -7.95269e-22)
(-0.00423032 -1.01904e-05 0)
(-0.00411504 -1.01625e-05 0)
(-0.00400018 -1.01231e-05 0)
(-0.00388585 -1.00724e-05 0)
(-0.0037722 -1.00106e-05 8.27063e-22)
(-0.00365932 -9.93805e-06 -8.26996e-22)
(-0.00354737 -9.85457e-06 -1.67471e-21)
(-0.00343645 -9.76084e-06 1.67466e-21)
(-0.00332667 -9.65667e-06 -1.69482e-21)
(-0.00321816 -9.54252e-06 -1.00189e-23)
(-0.00311104 -9.41859e-06 1.70504e-21)
(-0.0030054 -9.28509e-06 -1.7247e-21)
(-0.00290135 -9.14226e-06 -9.79975e-24)
(-0.002799 -8.99031e-06 -9.72749e-24)
(-0.00269846 -8.82959e-06 -9.6557e-24)
(-0.00259981 -8.66009e-06 -9.58439e-24)
(-0.00250317 -8.48218e-06 -9.51358e-24)
(-0.00240863 -8.29577e-06 1.773e-21)
(-0.00231626 -8.1009e-06 0)
(-0.00222621 -7.89692e-06 0)
(-0.00213853 -7.6842e-06 0)
(-0.00205339 -7.45986e-06 0)
(-0.00197083 -7.22579e-06 0)
(-0.00189114 -6.97399e-06 0)
(-0.00181427 -6.71126e-06 0)
(-0.00174077 -6.41794e-06 -1.85574e-21)
(-0.0016704 -6.11584e-06 1.85564e-21)
(-0.00160419 -5.75939e-06 -1.87312e-21)
(-0.00154139 -5.41361e-06 3.75522e-21)
(-0.00148396 -4.97552e-06 8.64739e-24)
(-0.0014298 -4.63103e-06 8.58253e-24)
(-0.0013821 -4.1499e-06 -1.89919e-21)
(-0.00133608 -4.06176e-06 0)
(-0.00129407 -3.93367e-06 3.84914e-21)
(-0.00124689 -5.67945e-06 1.68175e-23)
(-0.00117318 -1.44018e-05 1.62777e-23)
(-0.00110284 -6.51552e-05 -2.49225e-19)
(-0.00105822 -0.000119413 -4.99175e-19)
(-0.00101612 -0.000170906 -5.02066e-19)
(-0.000963582 -0.000214668 3.87782e-21)
(-0.000903184 -0.000250498 -9.86114e-19)
(-0.000827064 -0.00027439 -9.71315e-19)
(-0.000737214 -0.00028432 -9.58073e-19)
(-0.000628239 -0.000277048 9.39428e-19)
(-0.000499665 -0.000248822 -9.23075e-19)
(-0.000347497 -0.000196244 9.09193e-19)
(-0.000168235 -0.000113821 1.78137e-18)
(4.37181e-05 4.10048e-06 -3.49068e-18)
(0.000299282 0.000166113 0)
(0.00060138 0.000375063 1.68167e-18)
(0.000960639 0.000638072 -1.60936e-21)
(0.00138448 0.000960158 1.62484e-18)
(0.00187883 0.00134443 1.59926e-18)
(0.0024596 0.0017988 -1.57754e-18)
(0.00311839 0.00231597 -3.57797e-22)
(0.00387773 0.0029058 1.54159e-18)
(0.00470271 0.00354554 -1.48497e-21)
(0.0055867 0.00424508 -1.50091e-18)
(0.00653298 0.00500925 0)
(0.00755448 0.00585025 7.06887e-22)
(0.00864367 0.00676458 -6.95131e-22)
(0.0097901 0.0077673 6.75397e-22)
(0.0110534 0.0088914 -5.59967e-24)
(0.0124323 0.0101416 1.3131e-18)
(0.0139097 0.0115409 1.26672e-18)
(0.0157169 0.0132249 -2.94678e-22)
(0.0179667 0.0151773 2.89395e-22)
(0.0207399 0.0174091 1.34144e-22)
(0.0241792 0.0199119 4.98442e-21)
(0.0284226 0.0226553 0)
(0.0336574 0.0255472 7.15345e-21)
(0.0399873 0.0283922 0)
(0.047885 0.0309367 -9.3468e-21)
(0.0568753 0.0321832 4.29858e-23)
(0.0663646 0.03112 -2.46473e-19)
(0.0730836 0.0260405 1.56263e-19)
(0.072862 0.0181177 -1.15427e-23)
(0.0670748 0.0106205 -9.01741e-21)
(0.0586163 0.00512187 -3.75914e-25)
(0.0498835 0.00185931 0)
(0.0426277 0.000359183 0)
(0.0373105 3.3002e-05 0)
(0.05912 0.000495557 0)
(0.0587547 5.6237e-05 0)
(0.0581546 -0.00146366 -2.54796e-23)
(0.0559612 -0.00396975 4.63004e-22)
(0.0505246 -0.00685586 -1.8198e-21)
(0.0415252 -0.0090284 0)
(0.0296759 -0.00924974 4.72653e-21)
(0.0172964 -0.00695152 -5.43294e-22)
(0.00778147 -0.00355753 0)
(0.00174481 -0.000545462 -8.08613e-22)
(-0.0019514 0.00177106 0)
(-0.00400513 0.0033003 2.01606e-19)
(-0.00515218 0.00428148 0)
(-0.00571646 0.00483091 3.25486e-23)
(-0.00598101 0.0051128 -2.79261e-19)
(-0.00606942 0.0052046 -3.0221e-19)
(-0.00609256 0.00519076 -7.69775e-23)
(-0.00610875 0.00512786 0)
(-0.00612807 0.00506252 -6.75424e-22)
(-0.00612558 0.00498585 -3.83542e-19)
(-0.00611188 0.00490915 -1.98338e-22)
(-0.00609085 0.00483506 -4.18174e-19)
(-0.00606321 0.00476484 0)
(-0.00603497 0.00470207 4.50635e-19)
(-0.00600096 0.00464375 4.67885e-19)
(-0.00596036 0.00458789 -3.88226e-22)
(-0.00590194 0.00452435 -4.80844e-22)
(-0.00582737 0.00444088 -5.1143e-19)
(-0.00575502 0.00433831 5.2665e-19)
(-0.00569252 0.00421986 0)
(-0.00563994 0.00408505 0)
(-0.00559677 0.00393304 5.7884e-19)
(-0.00556322 0.00376216 -5.98448e-19)
(-0.00554094 0.00357288 -6.18692e-19)
(-0.00553042 0.00336381 1.01176e-21)
(-0.00554222 0.00313888 -1.28812e-21)
(-0.00558232 0.00290703 -3.41587e-19)
(-0.005637 0.00266872 3.52854e-19)
(-0.00570011 0.00242194 0)
(-0.00576856 0.00216461 0)
(-0.00584925 0.00189865 0)
(-0.00593645 0.0016207 0)
(-0.00605741 0.00133713 0)
(-0.00618997 0.00103984 -2.05003e-19)
(-0.0064209 0.000740982 1.65463e-21)
(-0.00669361 0.000430376 -1.0495e-19)
(-0.00733328 0.00016225 -1.6437e-21)
(-0.00806456 9.10988e-05 -1.67321e-21)
(-0.00851665 7.12066e-05 1.67318e-21)
(-0.00895184 5.98761e-05 0)
(-0.00929664 5.35529e-05 0)
(-0.00962943 4.8304e-05 -1.74158e-21)
(-0.00991962 4.45062e-05 1.74156e-21)
(-0.0101955 4.10247e-05 0)
(-0.0104457 3.8117e-05 -8.98549e-22)
(-0.0106811 3.53734e-05 8.98543e-22)
(-0.0108978 3.28989e-05 9.17946e-22)
(-0.0111002 3.05349e-05 -9.17941e-22)
(-0.0112872 2.83175e-05 0)
(-0.0114607 2.61819e-05 0)
(-0.0116205 2.41383e-05 0)
(-0.0117675 2.21588e-05 0)
(-0.011902 2.0245e-05 0)
(-0.0120245 1.83842e-05 0)
(-0.0121351 1.65756e-05 0)
(-0.0122343 1.48131e-05 0)
(-0.0123223 1.30954e-05 0)
(-0.0123994 1.14191e-05 0)
(-0.0124659 9.78315e-06 0)
(-0.0125221 8.18539e-06 0)
(-0.0125681 6.62494e-06 1.06926e-21)
(-0.0126043 5.10051e-06 -1.06926e-21)
(-0.0126308 3.61148e-06 0)
(-0.0126478 2.15768e-06 0)
(-0.0126557 7.39638e-07 0)
(-0.0126546 -6.47009e-07 -1.12803e-21)
(-0.0126447 -2.00614e-06 1.12803e-21)
(-0.0126261 -3.3367e-06 0)
(-0.0125992 -4.63774e-06 0)
(-0.012564 -5.90908e-06 0)
(-0.0125207 -7.15045e-06 0)
(-0.0124696 -8.3622e-06 0)
(-0.0124109 -9.54398e-06 6.06248e-22)
(-0.0123446 -1.06957e-05 -6.06302e-22)
(-0.0122711 -1.18175e-05 0)
(-0.0121905 -1.29087e-05 0)
(-0.0121031 -1.39691e-05 0)
(-0.0120089 -1.49987e-05 6.36895e-22)
(-0.0119083 -1.5997e-05 -6.3686e-22)
(-0.0118013 -1.69633e-05 0)
(-0.0116883 -1.78974e-05 0)
(-0.0115695 -1.87994e-05 0)
(-0.0114449 -1.9668e-05 3.33716e-22)
(-0.0113149 -2.05034e-05 3.04839e-24)
(-0.0111797 -2.13052e-05 -3.36781e-22)
(-0.0110395 -2.20727e-05 1.71424e-22)
(-0.0108944 -2.28056e-05 -3.44391e-22)
(-0.0107449 -2.35038e-05 1.72957e-22)
(-0.0105909 -2.41668e-05 0)
(-0.0104328 -2.47942e-05 0)
(-0.0102709 -2.5386e-05 0)
(-0.0101052 -2.59418e-05 0)
(-0.00993618 -2.64612e-05 0)
(-0.00976392 -2.69445e-05 -1.83425e-22)
(-0.00958869 -2.73913e-05 -1.47121e-24)
(-0.00941073 -2.7801e-05 1.84892e-22)
(-0.00923028 -2.81745e-05 0)
(-0.00904756 -2.85116e-05 0)
(-0.00886281 -2.88111e-05 0)
(-0.00867628 -2.9075e-05 3.8432e-22)
(-0.00848818 -2.93019e-05 -3.84281e-22)
(-0.00829876 -2.94924e-05 0)
(-0.00810825 -2.9647e-05 0)
(-0.00791688 -2.97654e-05 0)
(-0.00772487 -2.98486e-05 0)
(-0.00753246 -2.98954e-05 0)
(-0.00733988 -2.99081e-05 -8.0788e-22)
(-0.00714734 -2.98854e-05 1.62109e-21)
(-0.00695507 -2.98286e-05 -8.13363e-22)
(-0.00676329 -2.97381e-05 0)
(-0.00657221 -2.96139e-05 -8.29456e-22)
(-0.00638205 -2.9457e-05 8.29546e-22)
(-0.00619301 -2.92675e-05 0)
(-0.0060053 -2.90463e-05 0)
(-0.00581913 -2.87934e-05 0)
(-0.0056347 -2.85103e-05 0)
(-0.00545218 -2.81968e-05 0)
(-0.00527179 -2.7854e-05 0)
(-0.00509371 -2.74825e-05 0)
(-0.00491813 -2.7083e-05 0)
(-0.0047452 -2.6656e-05 0)
(-0.00457512 -2.62024e-05 0)
(-0.00440806 -2.57228e-05 -1.78167e-21)
(-0.00424418 -2.52175e-05 1.7818e-21)
(-0.00408365 -2.46872e-05 0)
(-0.00392662 -2.41319e-05 -1.81068e-21)
(-0.00377324 -2.35512e-05 1.81067e-21)
(-0.00362373 -2.29443e-05 1.82982e-21)
(-0.0034782 -2.23101e-05 -1.82985e-21)
(-0.00333691 -2.16437e-05 0)
(-0.00319996 -2.09448e-05 -1.85781e-21)
(-0.00306779 -2.01996e-05 1.85773e-21)
(-0.00294038 -1.94126e-05 0)
(-0.00281856 -1.85513e-05 0)
(-0.00270204 -1.76407e-05 0)
(-0.00259238 -1.66094e-05 0)
(-0.00248853 -1.55536e-05 0)
(-0.00239343 -1.43177e-05 0)
(-0.00230402 -1.32277e-05 0)
(-0.00222496 -1.19337e-05 0)
(-0.00214906 -1.15081e-05 0)
(-0.00207953 -1.12711e-05 3.91027e-21)
(-0.00200243 -1.55887e-05 1.70708e-23)
(-0.00188821 -3.05998e-05 1.57658e-20)
(-0.00177814 -0.000111001 2.453e-19)
(-0.00170332 -0.000196878 7.92432e-21)
(-0.00163121 -0.000279697 5.02206e-19)
(-0.00154177 -0.000350036 -5.03305e-19)
(-0.00143821 -0.000407156 3.90705e-21)
(-0.00130824 -0.000444446 9.83208e-19)
(-0.00115448 -0.000458218 9.77497e-19)
(-0.00096828 -0.000443183 -3.73702e-21)
(-0.000748531 -0.000392886 0)
(-0.000488501 -0.00030166 -9.24297e-19)
(-0.000182061 -0.000160261 0)
(0.000180642 4.05812e-05 1.77128e-18)
(0.000616841 0.00031457 3.39224e-21)
(0.0011318 0.000666775 0)
(0.00174284 0.00110852 0)
(0.00246177 0.00164801 -1.61681e-21)
(0.00329906 0.00229038 1.58696e-21)
(0.00427858 0.00304745 -1.57036e-21)
(0.00538844 0.00390859 -1.58375e-18)
(0.00666116 0.00488757 -1.56661e-18)
(0.00804153 0.0059509 0)
(0.00952043 0.0071142 -1.52523e-18)
(0.0111036 0.00838544 1.46461e-21)
(0.012811 0.00978342 -7.22509e-22)
(0.0146307 0.0113047 -3.1401e-24)
(0.0165511 0.0129747 -1.37684e-21)
(0.0186661 0.0148445 1.3406e-21)
(0.0209737 0.0169247 -7.62499e-24)
(0.0234653 0.0192588 -1.28939e-18)
(0.0265091 0.0220509 0)
(0.0302838 0.0252747 0)
(0.0349253 0.0289456 0)
(0.0406629 0.033043 1.08218e-18)
(0.0477178 0.0375074 -1.01487e-18)
(0.0563788 0.0421753 9.49095e-19)
(0.0668152 0.0467164 0)
(0.079696 0.0506724 -7.6455e-19)
(0.0942041 0.0524643 6.2759e-19)
(0.109237 0.0505173 2.41604e-19)
(0.119694 0.0423534 -2.8144e-23)
(0.119411 0.0298773 2.88607e-23)
(0.110477 0.0179844 1.03206e-20)
(0.0972127 0.00909817 -2.54876e-21)
(0.083324 0.00367462 0)
(0.0716137 0.0010547 0)
(0.0629401 0.000334173 0)
(0.0836878 0.000848478 0)
(0.0828363 0.000130448 -6.03758e-24)
(0.0817694 -0.00195475 4.03347e-22)
(0.078605 -0.00532376 2.15996e-22)
(0.0711502 -0.00919143 4.23822e-22)
(0.058935 -0.0121472 -1.63978e-21)
(0.0428372 -0.0125783 -4.06298e-24)
(0.0258113 -0.00968747 4.28381e-20)
(0.0123792 -0.00521774 -1.47787e-23)
(0.00361033 -0.0011135 -1.30269e-19)
(-0.00187182 0.00211986 -1.69294e-19)
(-0.00500331 0.00430685 0)
(-0.00679091 0.00573534 0)
(-0.00771191 0.00655927 0)
(-0.00817063 0.00699905 2.84095e-19)
(-0.00835572 0.00716521 3.05847e-19)
(-0.00842737 0.00717468 3.27492e-19)
(-0.0084739 0.00710685 3.4954e-19)
(-0.00851658 0.00702812 -7.39928e-19)
(-0.00852677 0.00693094 -1.87185e-22)
(-0.00851787 0.00683134 0)
(-0.00849663 0.00673377 4.25659e-19)
(-0.00846445 0.00664048 -4.36325e-22)
(-0.00842983 0.00655628 -4.5891e-19)
(-0.00838656 0.00647754 -4.73766e-19)
(-0.00833383 0.00640141 -4.89897e-19)
(-0.00825738 0.00631487 0)
(-0.00815883 0.00620172 -5.11175e-22)
(-0.00806202 0.00606208 -5.35192e-19)
(-0.00797792 0.00589982 5.52086e-19)
(-0.00790732 0.00571433 0)
(-0.00784977 0.00550455 -5.88697e-19)
(-0.00780565 0.00526827 0)
(-0.00777728 0.00500611 6.29122e-19)
(-0.00776542 0.00471651 -1.30168e-18)
(-0.00778358 0.00440451 6.72197e-19)
(-0.00784003 0.00408156 2.72209e-21)
(-0.00791748 0.00374881 -1.39942e-21)
(-0.00800758 0.00340399 1.45569e-21)
(-0.00810604 0.00304462 -3.84688e-19)
(-0.00822193 0.00267313 1.52393e-21)
(-0.0083485 0.00228581 0)
(-0.0085215 0.00189052 -2.04654e-19)
(-0.00871503 0.00147891 2.0826e-19)
(-0.00904141 0.00106601 2.54261e-23)
(-0.00943526 0.000646776 0)
(-0.0102984 0.00028894 6.70166e-21)
(-0.011278 0.000181566 0)
(-0.0119077 0.000142148 0)
(-0.0125086 0.000120835 0)
(-0.0129898 0.000107458 0)
(-0.0134508 9.72868e-05 0)
(-0.0138544 8.93611e-05 0)
(-0.0142367 8.24851e-05 0)
(-0.0145839 7.65155e-05 0)
(-0.0149099 7.10344e-05 0)
(-0.01521 6.60026e-05 0)
(-0.01549 6.12538e-05 0)
(-0.0157486 5.67657e-05 0)
(-0.0159882 5.2466e-05 0)
(-0.0162088 4.83387e-05 0)
(-0.0164116 4.435e-05 0)
(-0.0165968 4.0489e-05 0)
(-0.0167652 3.67388e-05 -1.0063e-21)
(-0.0169171 3.30923e-05 1.00629e-21)
(-0.0170531 2.95403e-05 0)
(-0.0171736 2.60783e-05 0)
(-0.0172788 2.27007e-05 0)
(-0.0173693 1.94043e-05 0)
(-0.0174453 1.61855e-05 0)
(-0.0175072 1.3042e-05 0)
(-0.0175553 9.97159e-06 0)
(-0.01759 6.97278e-06 0)
(-0.0176116 4.04535e-06 0)
(-0.0176203 1.18985e-06 0)
(-0.0176166 -1.60272e-06 0)
(-0.0176006 -4.33964e-06 0)
(-0.0175726 -7.01846e-06 5.85054e-22)
(-0.0175329 -9.63763e-06 -5.85055e-22)
(-0.0174818 -1.21967e-05 -5.97304e-22)
(-0.0174194 -1.46954e-05 1.20077e-21)
(-0.0173462 -1.71342e-05 -6.03487e-22)
(-0.0172622 -1.95125e-05 -6.15783e-22)
(-0.0171679 -2.18302e-05 -6.19519e-24)
(-0.0170635 -2.40872e-05 6.22024e-22)
(-0.0169493 -2.62828e-05 -6.34397e-22)
(-0.0168254 -2.84162e-05 6.34436e-22)
(-0.0166923 -3.04873e-05 0)
(-0.0165502 -3.24953e-05 0)
(-0.0163994 -3.44389e-05 0)
(-0.0162401 -3.63177e-05 0)
(-0.0160727 -3.81315e-05 0)
(-0.0158974 -3.98782e-05 0)
(-0.0157145 -4.15579e-05 0)
(-0.0155244 -4.317e-05 0)
(-0.0153274 -4.47129e-05 0)
(-0.0151237 -4.61861e-05 0)
(-0.0149136 -4.75895e-05 0)
(-0.0146975 -4.89219e-05 0)
(-0.0144758 -5.01826e-05 0)
(-0.0142486 -5.13717e-05 4.54462e-23)
(-0.0140164 -5.24882e-05 -4.5443e-23)
(-0.0137794 -5.35315e-05 0)
(-0.013538 -5.4502e-05 0)
(-0.0132924 -5.53992e-05 0)
(-0.0130431 -5.62217e-05 0)
(-0.0127904 -5.69712e-05 0)
(-0.0125346 -5.76473e-05 0)
(-0.0122759 -5.82481e-05 0)
(-0.0120148 -5.87769e-05 0)
(-0.0117515 -5.92312e-05 0)
(-0.0114865 -5.96124e-05 7.92245e-22)
(-0.0112199 -5.99212e-05 -1.59033e-21)
(-0.0109522 -6.01572e-05 1.60169e-21)
(-0.0106836 -6.03219e-05 -8.03652e-22)
(-0.0104145 -6.04138e-05 -8.14997e-22)
(-0.0101452 -6.04369e-05 8.15022e-22)
(-0.00987593 -6.03886e-05 0)
(-0.0096071 -6.02717e-05 0)
(-0.00933899 -6.00868e-05 0)
(-0.00907188 -5.98341e-05 0)
(-0.00880607 -5.95152e-05 8.48025e-22)
(-0.00854188 -5.91307e-05 -8.48016e-22)
(-0.00827956 -5.86823e-05 -1.71727e-21)
(-0.0080194 -5.81701e-05 1.71745e-21)
(-0.00776171 -5.75968e-05 0)
(-0.00750672 -5.69623e-05 0)
(-0.00725472 -5.62685e-05 -1.75926e-21)
(-0.00700598 -5.55168e-05 1.75936e-21)
(-0.00676074 -5.47084e-05 0)
(-0.00651925 -5.38446e-05 -1.78982e-21)
(-0.00628176 -5.29266e-05 1.78994e-21)
(-0.00604851 -5.19561e-05 0)
(-0.00581973 -5.09335e-05 1.81986e-21)
(-0.00559566 -4.98601e-05 -1.81992e-21)
(-0.00537652 -4.87361e-05 0)
(-0.00516251 -4.756e-05 1.84899e-21)
(-0.00495393 -4.63311e-05 -1.84918e-21)
(-0.00475097 -4.50454e-05 -1.86835e-21)
(-0.00455396 -4.36963e-05 -9.46257e-24)
(-0.00436307 -4.22774e-05 1.87784e-21)
(-0.00417889 -4.07704e-05 -1.89648e-21)
(-0.00400143 -3.91698e-05 -9.2534e-24)
(-0.0038318 -3.74338e-05 -9.18632e-24)
(-0.00366967 -3.55768e-05 -9.11662e-24)
(-0.00351709 -3.35131e-05 1.92396e-21)
(-0.00337278 -3.13484e-05 -3.8843e-21)
(-0.00324051 -2.89084e-05 3.88444e-21)
(-0.00311644 -2.66398e-05 0)
(-0.00300644 -2.41502e-05 0)
(-0.00290128 -2.31216e-05 0)
(-0.00280482 -2.27446e-05 0)
(-0.00269913 -3.04046e-05 -3.9899e-21)
(-0.00254985 -5.18238e-05 -8.00047e-21)
(-0.00240457 -0.000158799 -4.01095e-21)
(-0.00229947 -0.000272905 -5.15219e-19)
(-0.00219611 -0.000384588 0)
(-0.00206832 -0.000479395 -2.92825e-24)
(-0.00191944 -0.000555724 0)
(-0.00173318 -0.000604393 0)
(-0.00151238 -0.000619845 0)
(-0.00124533 -0.000594784 -9.74403e-19)
(-0.000930047 -0.000519937 3.74867e-21)
(-0.000557008 -0.000387343 -3.66307e-21)
(-0.000117213 -0.000183993 0)
(0.000403724 0.000102866 1.80473e-18)
(0.00102879 0.00049167 -3.46428e-21)
(0.0017658 0.000989867 3.38676e-21)
(0.00263845 0.00161265 0)
(0.00366263 0.00237121 0)
(0.00485354 0.00327265 1.65406e-18)
(0.00624137 0.00433193 -4.75496e-24)
(0.00781179 0.00553587 1.57208e-21)
(0.00960423 0.00690081 0)
(0.0115452 0.00838519 1.57272e-18)
(0.0136243 0.0100099 1.55149e-18)
(0.01585 0.0117858 0)
(0.0182481 0.0137376 1.46053e-21)
(0.0208032 0.0158631 -1.46793e-18)
(0.0235062 0.0181986 -7.01835e-22)
(0.0264819 0.0208102 0)
(0.0297286 0.0237167 -6.56747e-22)
(0.0332582 0.0269833 9.79558e-24)
(0.0375642 0.0308689 6.194e-22)
(0.0428852 0.035337 0)
(0.0494114 0.0404055 -1.37647e-22)
(0.0574527 0.0460357 1.36376e-22)
(0.0673058 0.0521332 1.03225e-18)
(0.0793447 0.0584561 8.65619e-25)
(0.0937952 0.0645366 -8.7189e-25)
(0.111444 0.0696953 -4.22423e-23)
(0.131116 0.0718384 -6.37577e-19)
(0.15115 0.0689209 -2.4549e-19)
(0.16487 0.0579224 0)
(0.1646 0.0414177 0)
(0.153008 0.0255606 -1.04767e-20)
(0.135516 0.0134963 2.58669e-21)
(0.116943 0.00593156 -2.67241e-21)
(0.101056 0.00210958 -1.27952e-24)
(0.0891605 0.000863784 0)
(0.108768 0.00130923 -6.84786e-26)
(0.107265 0.000255399 -3.11014e-25)
(0.105617 -0.00237952 0)
(0.101437 -0.00654646 -2.19105e-22)
(0.0920461 -0.0113133 2.46548e-21)
(0.0768119 -0.0150103 1.66763e-21)
(0.0567201 -0.0157065 2.97125e-24)
(0.0352211 -0.0123823 -2.20451e-20)
(0.0178384 -0.00698721 0)
(0.0061784 -0.0018635 0)
(-0.00126025 0.00227142 3.43381e-19)
(-0.00561918 0.00513517 -2.04972e-19)
(-0.00815816 0.00703898 2.35545e-19)
(-0.00951695 0.00816691 -3.34357e-23)
(-0.0102258 0.00879005 3.374e-23)
(-0.0105467 0.00905207 -3.11184e-19)
(-0.0106927 0.00910174 -3.33608e-19)
(-0.0107859 0.00904122 -3.55353e-19)
(-0.0108627 0.00895721 3.76298e-19)
(-0.0108945 0.00884578 3.95403e-19)
(-0.0108972 0.00872813 -1.99548e-22)
(-0.0108812 0.00861089 0)
(-0.0108488 0.00849763 0)
(-0.0108112 0.00839437 -4.65964e-19)
(-0.0107616 0.00829707 9.63971e-19)
(-0.0106994 0.00820208 -4.96587e-19)
(-0.010608 0.00809407 5.12236e-19)
(-0.0104888 0.00795327 -5.28076e-19)
(-0.0103703 0.00777879 5.35268e-22)
(-0.0102667 0.00757478 -5.62101e-19)
(-0.0101799 0.0073405 5.69161e-22)
(-0.0101097 0.00707471 -1.75588e-21)
(-0.0100566 0.00677474 -6.16811e-19)
(-0.0100238 0.00644131 0)
(-0.0100121 0.0060729 6.62912e-19)
(-0.0100377 0.00567542 -6.8605e-19)
(-0.0101108 0.00526243 0)
(-0.0102116 0.0048359 -3.65703e-19)
(-0.0103297 0.00439353 0)
(-0.0104595 0.00393273 5.3054e-23)
(-0.0106123 0.00345631 0)
(-0.0107805 0.00296075 1.59797e-21)
(-0.0110076 0.00245496 2.06295e-19)
(-0.0112658 0.00193169 -2.11587e-19)
(-0.0116891 0.00140814 -2.14381e-19)
(-0.0122079 0.000887859 -1.69838e-21)
(-0.0132793 0.000447586 -1.36309e-20)
(-0.014487 0.000301201 -1.67141e-23)
(-0.0152908 0.000237042 1.72731e-21)
(-0.0160524 0.000202853 0)
(-0.0166683 0.000179898 0)
(-0.0172547 0.000163164 0)
(-0.01777 0.000149604 0)
(-0.0182564 0.000138161 0)
(-0.0186986 0.000128026 0)
(-0.0191131 0.000118848 9.3724e-22)
(-0.0194947 0.000110347 1.00824e-23)
(-0.0198503 0.000102375 -9.47301e-22)
(-0.0201785 9.48114e-05 0)
(-0.0204823 8.75856e-05 -9.78516e-22)