/*--------------------------------*- C++ -*----------------------------------*\
| =========                 |                                                 |
| \\      /  F ield         | OpenFOAM: The Open Source CFD Toolbox           |
|  \\    /   O peration     | Version:  v2006                                 |
|   \\  /    A nd           | Website:  www.openfoam.com                      |
|    \\/     M anipulation  |                                                 |
\*---------------------------------------------------------------------------*/
FoamFile
{
    version     2.0;
    format      ascii;
    class       volScalarField;
    location    "10";
    object      Cy;
}
// * * * * * * * * * * * * * * * * * * * * * * * * * * * * * * * * * * * * * //

dimensions      [0 1 0 0 0 0 0];


internalField   nonuniform List<scalar> 
40000
(
1.00217
1.00231
1.00166
0.999126
0.993652
0.984314
0.970451
0.951966
0.929578
0.904327
0.877011
0.84822
0.818389
0.787837
0.756829
0.725601
0.694369
0.663325
0.632562
0.602071
0.57183
0.541813
0.511992
0.482341
0.452828
0.423419
0.394085
0.364832
0.335732
0.30689
0.278423
0.250455
0.223127
0.1966
0.171058
0.146715
0.123783
0.10243
0.0827896
0.0649976
0.049195
0.0355231
0.0241178
0.0151037
0.00858971
0.00466274
0.00320126
0.00304718
0.00304718
0.00304718
0.00304718
0.00304718
0.00304718
0.00304718
0.00304718
0.00304718
0.00304718
0.00304718
0.00304718
0.00304718
0.00304718
0.00304718
0.00304718
0.00304718
0.00304718
0.00304718
0.00304718
0.00304718
0.00304718
0.00304718
0.00304718
0.00304718
0.00304718
0.00304718
0.00304718
0.00304718
0.00304718
0.00304718
0.00304718
0.00304718
0.00304718
0.00304718
0.00304718
0.00304718
0.00304718
0.00304718
0.00304718
0.00304718
0.00304718
0.00304718
0.00304718
0.00304718
0.00304718
0.00304718
0.00304718
0.00304718
0.00304718
0.00304718
0.00304718
0.00304718
0.00304718
0.00304718
0.00304718
0.00304718
0.00304718
0.00304718
0.00304718
0.00304718
0.00304718
0.00304718
0.00304718
0.00304718
0.00304718
0.00304718
0.00304718
0.00304718
0.00304718
0.00304718
0.00304718
0.00304718
0.00304718
0.00304718
0.00304718
0.00304718
0.00304718
0.00304718
0.00304718
0.00304718
0.00304718
0.00304718
0.00304718
0.00304718
0.00304718
0.00304718
0.00304718
0.00304718
0.00304718
0.00304718
0.00304718
0.00304718
0.00304718
0.00304718
0.00304718
0.00304718
0.00304718
0.00304718
0.00304718
0.00304718
0.00304718
0.00304718
0.00304718
0.00304718
0.00304718
0.00320142
0.00466282
0.00858877
0.0151039
0.0241188
0.0355222
0.0491951
0.0649979
0.0827912
0.102432
0.123781
0.146712
0.171058
0.196604
0.22313
0.250456
0.278422
0.306891
0.335731
0.364829
0.394084
0.423416
0.452822
0.48234
0.511997
0.541814
0.571827
0.602074
0.632562
0.663322
0.69437
0.725599
0.756824
0.787835
0.818393
0.848221
0.877008
0.90433
0.92958
0.951964
0.97045
0.984314
0.993652
0.999127
1.00166
1.00231
1.00217
1.00629
1.00643
1.00578
1.00325
0.997789
0.98847
0.974635
0.956188
0.933845
0.908645
0.881385
0.852652
0.822882
0.792391
0.761447
0.730282
0.699112
0.668132
0.637431
0.607002
0.576822
0.546866
0.517105
0.487514
0.458061
0.428712
0.399437
0.370244
0.341202
0.312419
0.284009
0.256098
0.228826
0.202352
0.176862
0.152568
0.129683
0.108373
0.0887725
0.0710166
0.055246
0.0416018
0.0302196
0.0212237
0.0147229
0.0108039
0.00934538
0.00919161
0.00919161
0.00919161
0.00919161
0.00919161
0.00919161
0.00919161
0.00919161
0.00919161
0.00919161
0.00919161
0.00919161
0.00919161
0.00919161
0.00919161
0.00919161
0.00919161
0.00919161
0.00919161
0.00919161
0.00919161
0.00919161
0.00919161
0.00919161
0.00919161
0.00919161
0.00919161
0.00919161
0.00919161
0.00919161
0.00919161
0.00919161
0.00919161
0.00919161
0.00919161
0.00919161
0.00919161
0.00919161
0.00919161
0.00919161
0.00919161
0.00919161
0.00919161
0.00919161
0.00919161
0.00919161
0.00919161
0.00919161
0.00919161
0.00919161
0.00919161
0.00919161
0.00919161
0.00919161
0.00919161
0.00919161
0.00919161
0.00919161
0.00919161
0.00919161
0.00919161
0.00919161
0.00919161
0.00919161
0.00919161
0.00919161
0.00919161
0.00919161
0.00919161
0.00919161
0.00919161
0.00919161
0.00919161
0.00919161
0.00919161
0.00919161
0.00919161
0.00919161
0.00919161
0.00919161
0.00919161
0.00919161
0.00919161
0.00919161
0.00919161
0.00919161
0.00919161
0.00919161
0.00919161
0.00919161
0.00919161
0.00919161
0.00919161
0.00919161
0.00919161
0.00919161
0.00919161
0.00919161
0.00919161
0.00919161
0.00919161
0.00919161
0.00919161
0.00919161
0.00919161
0.00919161
0.00934554
0.010804
0.014722
0.0212239
0.0302206
0.0416009
0.055246
0.0710168
0.088774
0.108375
0.129681
0.152565
0.176862
0.202356
0.228829
0.256099
0.284009
0.312419
0.341201
0.37024
0.399436
0.428709
0.458056
0.487513
0.51711
0.546867
0.576819
0.607005
0.637431
0.668129
0.699114
0.73028
0.761441
0.792389
0.822885
0.852653
0.881382
0.908648
0.933848
0.956186
0.974634
0.98847
0.99779
1.00325
1.00578
1.00643
1.00629
1.01048
1.01061
1.00997
1.00745
1.00199
0.992695
0.978888
0.960479
0.938183
0.913034
0.88583
0.857157
0.827448
0.79702
0.76614
0.735039
0.703934
0.673018
0.64238
0.612013
0.581896
0.552001
0.522302
0.492772
0.46338
0.434091
0.404877
0.375744
0.346762
0.318039
0.289688
0.261834
0.234618
0.208199
0.182761
0.158517
0.13568
0.114414
0.0948534
0.0771341
0.0613961
0.04778
0.0364213
0.027444
0.0209566
0.0170457
0.0155902
0.0154368
0.0154368
0.0154368
0.0154368
0.0154368
0.0154368
0.0154368
0.0154368
0.0154368
0.0154368
0.0154368
0.0154368
0.0154368
0.0154368
0.0154368
0.0154368
0.0154368
0.0154368
0.0154368
0.0154368
0.0154368
0.0154368
0.0154368
0.0154368
0.0154368
0.0154368
0.0154368
0.0154368
0.0154368
0.0154368
0.0154368
0.0154368
0.0154368
0.0154368
0.0154368
0.0154368
0.0154368
0.0154368
0.0154368
0.0154368
0.0154368
0.0154368
0.0154368
0.0154368
0.0154368
0.0154368
0.0154368
0.0154368
0.0154368
0.0154368
0.0154368
0.0154368
0.0154368
0.0154368
0.0154368
0.0154368
0.0154368
0.0154368
0.0154368
0.0154368
0.0154368
0.0154368
0.0154368
0.0154368
0.0154368
0.0154368
0.0154368
0.0154368
0.0154368
0.0154368
0.0154368
0.0154368
0.0154368
0.0154368
0.0154368
0.0154368
0.0154368
0.0154368
0.0154368
0.0154368
0.0154368
0.0154368
0.0154368
0.0154368
0.0154368
0.0154368
0.0154368
0.0154368
0.0154368
0.0154368
0.0154368
0.0154368
0.0154368
0.0154368
0.0154368
0.0154368
0.0154368
0.0154368
0.0154368
0.0154368
0.0154368
0.0154368
0.0154368
0.0154368
0.0154368
0.0154368
0.0155904
0.0170458
0.0209557
0.0274442
0.0364223
0.0477791
0.0613961
0.0771344
0.094855
0.114415
0.135678
0.158514
0.182761
0.208203
0.234621
0.261834
0.289687
0.318039
0.346761
0.375741
0.404876
0.434089
0.463375
0.492771
0.522307
0.552003
0.581893
0.612016
0.64238
0.673014
0.703935
0.735037
0.766134
0.797018
0.827452
0.857157
0.885828
0.913037
0.938185
0.960477
0.978887
0.992694
1.00199
1.00745
1.00997
1.01061
1.01048
1.01473
1.01487
1.01423
1.01171
1.00627
0.996989
0.983211
0.964841
0.942591
0.917495
0.890348
0.861735
0.832089
0.801725
0.770909
0.739874
0.708835
0.677983
0.64741
0.617107
0.587053
0.557221
0.527585
0.498117
0.468786
0.439559
0.410406
0.381334
0.352413
0.32375
0.295459
0.267664
0.240505
0.214141
0.188757
0.164564
0.141774
0.120553
0.101034
0.083352
0.067647
0.0540595
0.0427247
0.0337663
0.0272925
0.0233898
0.0219374
0.0217842
0.0217842
0.0217842
0.0217842
0.0217842
0.0217842
0.0217842
0.0217842
0.0217842
0.0217842
0.0217842
0.0217842
0.0217842
0.0217842
0.0217842
0.0217842
0.0217842
0.0217842
0.0217842
0.0217842
0.0217842
0.0217842
0.0217842
0.0217842
0.0217842
0.0217842
0.0217842
0.0217842
0.0217842
0.0217842
0.0217842
0.0217842
0.0217842
0.0217842
0.0217842
0.0217842
0.0217842
0.0217842
0.0217842
0.0217842
0.0217842
0.0217842
0.0217842
0.0217842
0.0217842
0.0217842
0.0217842
0.0217842
0.0217842
0.0217842
0.0217842
0.0217842
0.0217842
0.0217842
0.0217842
0.0217842
0.0217842
0.0217842
0.0217842
0.0217842
0.0217842
0.0217842
0.0217842
0.0217842
0.0217842
0.0217842
0.0217842
0.0217842
0.0217842
0.0217842
0.0217842
0.0217842
0.0217842
0.0217842
0.0217842
0.0217842
0.0217842
0.0217842
0.0217842
0.0217842
0.0217842
0.0217842
0.0217842
0.0217842
0.0217842
0.0217842
0.0217842
0.0217842
0.0217842
0.0217842
0.0217842
0.0217842
0.0217842
0.0217842
0.0217842
0.0217842
0.0217842
0.0217842
0.0217842
0.0217842
0.0217842
0.0217842
0.0217842
0.0217842
0.0217842
0.0217842
0.0219375
0.0233899
0.0272916
0.0337665
0.0427257
0.0540586
0.067647
0.0833522
0.101036
0.120555
0.141772
0.164561
0.188757
0.214145
0.240507
0.267664
0.295458
0.32375
0.352413
0.381331
0.410405
0.439556
0.468781
0.498115
0.52759
0.557222
0.58705
0.61711
0.64741
0.67798
0.708836
0.739872
0.770904
0.801723
0.832093
0.861736
0.890346
0.917498
0.942593
0.964839
0.98321
0.996988
1.00627
1.01171
1.01423
1.01487
1.01473
1.01906
1.0192
1.01855
1.01604
1.01061
1.00135
0.987604
0.969273
0.947071
0.92203
0.894941
0.866389
0.836806
0.806507
0.775757
0.744789
0.713815
0.68303
0.652522
0.622284
0.592294
0.562527
0.532954
0.503548
0.474281
0.445116
0.416026
0.387016
0.358157
0.329555
0.301324
0.273589
0.246488
0.220181
0.194851
0.17071
0.147969
0.126794
0.107316
0.0896717
0.0740003
0.060442
0.0491314
0.0401922
0.0337323
0.0298379
0.0283886
0.0282358
0.0282358
0.0282358
0.0282358
0.0282358
0.0282358
0.0282358
0.0282358
0.0282358
0.0282358
0.0282358
0.0282358
0.0282358
0.0282358
0.0282358
0.0282358
0.0282358
0.0282358
0.0282358
0.0282358
0.0282358
0.0282358
0.0282358
0.0282358
0.0282358
0.0282358
0.0282358
0.0282358
0.0282358
0.0282358
0.0282358
0.0282358
0.0282358
0.0282358
0.0282358
0.0282358
0.0282358
0.0282358
0.0282358
0.0282358
0.0282358
0.0282358
0.0282358
0.0282358
0.0282358
0.0282358
0.0282358
0.0282358
0.0282358
0.0282358
0.0282358
0.0282358
0.0282358
0.0282358
0.0282358
0.0282358
0.0282358
0.0282358
0.0282358
0.0282358
0.0282358
0.0282358
0.0282358
0.0282358
0.0282358
0.0282358
0.0282358
0.0282358
0.0282358
0.0282358
0.0282358
0.0282358
0.0282358
0.0282358
0.0282358
0.0282358
0.0282358
0.0282358
0.0282358
0.0282358
0.0282358
0.0282358
0.0282358
0.0282358
0.0282358
0.0282358
0.0282358
0.0282358
0.0282358
0.0282358
0.0282358
0.0282358
0.0282358
0.0282358
0.0282358
0.0282358
0.0282358
0.0282358
0.0282358
0.0282358
0.0282358
0.0282358
0.0282358
0.0282358
0.0282358
0.0282358
0.0283887
0.029838
0.0337313
0.0401924
0.0491324
0.0604411
0.0740004
0.0896719
0.107317
0.126795
0.147967
0.170707
0.194851
0.220185
0.246491
0.273589
0.301324
0.329556
0.358156
0.387013
0.416025
0.445114
0.474275
0.503547
0.532958
0.562528
0.592291
0.622287
0.652522
0.683026
0.713817
0.744787
0.775752
0.806505
0.83681
0.86639
0.894938
0.922033
0.947073
0.969272
0.987603
1.00135
1.01061
1.01604
1.01855
1.0192
1.01906
1.02346
1.02359
1.02295
1.02044
1.01503
1.00579
0.99207
0.973779
0.951625
0.926638
0.899608
0.871119
0.8416
0.811367
0.780685
0.749784
0.718878
0.68816
0.657718
0.627546
0.597622
0.567919
0.53841
0.509069
0.479865
0.450764
0.421738
0.392791
0.363995
0.335456
0.307286
0.279611
0.252569
0.226319
0.201045
0.176957
0.154265
0.133136
0.113701
0.096095
0.0804578
0.066929
0.0556431
0.0467234
0.0402776
0.0363917
0.0349455
0.034793
0.034793
0.034793
0.034793
0.034793
0.034793
0.034793
0.034793
0.034793
0.034793
0.034793
0.034793
0.034793
0.034793
0.034793
0.034793
0.034793
0.034793
0.034793
0.034793
0.034793
0.034793
0.034793
0.034793
0.034793
0.034793
0.034793
0.034793
0.034793
0.034793
0.034793
0.034793
0.034793
0.034793
0.034793
0.034793
0.034793
0.034793
0.034793
0.034793
0.034793
0.034793
0.034793
0.034793
0.034793
0.034793
0.034793
0.034793
0.034793
0.034793
0.034793
0.034793
0.034793
0.034793
0.034793
0.034793
0.034793
0.034793
0.034793
0.034793
0.034793
0.034793
0.034793
0.034793
0.034793
0.034793
0.034793
0.034793
0.034793
0.034793
0.034793
0.034793
0.034793
0.034793
0.034793
0.034793
0.034793
0.034793
0.034793
0.034793
0.034793
0.034793
0.034793
0.034793
0.034793
0.034793
0.034793
0.034793
0.034793
0.034793
0.034793
0.034793
0.034793
0.034793
0.034793
0.034793
0.034793
0.034793
0.034793
0.034793
0.034793
0.034793
0.034793
0.034793
0.034793
0.034793
0.0349457
0.0363918
0.0402766
0.0467236
0.0556441
0.0669281
0.0804579
0.0960953
0.113702
0.133137
0.154263
0.176954
0.201045
0.226324
0.252572
0.279612
0.307285
0.335456
0.363994
0.392788
0.421737
0.450762
0.47986
0.509068
0.538415
0.56792
0.597619
0.627549
0.657718
0.688156
0.718879
0.749782
0.780679
0.811365
0.841604
0.871119
0.899606
0.926641
0.951627
0.973777
0.992069
1.00579
1.01503
1.02045
1.02295
1.02359
1.02346
1.02793
1.02806
1.02742
1.02492
1.01952
1.0103
0.996609
0.978358
0.956254
0.931322
0.904352
0.875926
0.846473
0.816307
0.785693
0.75486
0.724023
0.693373
0.663
0.632895
0.603036
0.5734
0.543957
0.514681
0.485542
0.456505
0.427543
0.398661
0.369929
0.341453
0.313346
0.285732
0.25875
0.232559
0.207341
0.183306
0.160665
0.139582
0.12019
0.102624
0.0870212
0.0735224
0.0622615
0.0533616
0.0469301
0.0430529
0.0416099
0.0414578
0.0414578
0.0414578
0.0414578
0.0414578
0.0414578
0.0414578
0.0414578
0.0414578
0.0414578
0.0414578
0.0414578
0.0414578
0.0414578
0.0414578
0.0414578
0.0414578
0.0414578
0.0414578
0.0414578
0.0414578
0.0414578
0.0414578
0.0414578
0.0414578
0.0414578
0.0414578
0.0414578
0.0414578
0.0414578
0.0414578
0.0414578
0.0414578
0.0414578
0.0414578
0.0414578
0.0414578
0.0414578
0.0414578
0.0414578
0.0414578
0.0414578
0.0414578
0.0414578
0.0414578
0.0414578
0.0414578
0.0414578
0.0414578
0.0414578
0.0414578
0.0414578
0.0414578
0.0414578
0.0414578
0.0414578
0.0414578
0.0414578
0.0414578
0.0414578
0.0414578
0.0414578
0.0414578
0.0414578
0.0414578
0.0414578
0.0414578
0.0414578
0.0414578
0.0414578
0.0414578
0.0414578
0.0414578
0.0414578
0.0414578
0.0414578
0.0414578
0.0414578
0.0414578
0.0414578
0.0414578
0.0414578
0.0414578
0.0414578
0.0414578
0.0414578
0.0414578
0.0414578
0.0414578
0.0414578
0.0414578
0.0414578
0.0414578
0.0414578
0.0414578
0.0414578
0.0414578
0.0414578
0.0414578
0.0414578
0.0414578
0.0414578
0.0414578
0.0414578
0.0414578
0.0414578
0.0416101
0.043053
0.0469292
0.0533618
0.0622626
0.0735215
0.0870212
0.102624
0.120192
0.139584
0.160663
0.183303
0.207341
0.232563
0.258753
0.285733
0.313345
0.341453
0.369928
0.398658
0.427542
0.456503
0.485537
0.51468
0.543961
0.573401
0.603034
0.632898
0.663
0.69337
0.724025
0.754859
0.785687
0.816306
0.846477
0.875927
0.90435
0.931325
0.956256
0.978356
0.996607
1.0103
1.01952
1.02492
1.02742
1.02806
1.02793
1.03247
1.0326
1.03197
1.02947
1.02408
1.01488
1.00122
0.983013
0.960958
0.936083
0.909174
0.880812
0.851426
0.821329
0.790783
0.760021
0.729253
0.698673
0.668368
0.638331
0.60854
0.57897
0.549594
0.520384
0.491311
0.46234
0.433443
0.404626
0.375959
0.347548
0.319505
0.291954
0.265033
0.238901
0.21374
0.189759
0.167169
0.146134
0.126786
0.109259
0.0936921
0.0802238
0.0689885
0.0601087
0.0536917
0.0498232
0.0483835
0.0482318
0.0482318
0.0482318
0.0482318
0.0482318
0.0482318
0.0482318
0.0482318
0.0482318
0.0482318
0.0482318
0.0482318
0.0482318
0.0482318
0.0482318
0.0482318
0.0482318
0.0482318
0.0482318
0.0482318
0.0482318
0.0482318
0.0482318
0.0482318
0.0482318
0.0482318
0.0482318
0.0482318
0.0482318
0.0482318
0.0482318
0.0482318
0.0482318
0.0482318
0.0482318
0.0482318
0.0482318
0.0482318
0.0482318
0.0482318
0.0482318
0.0482318
0.0482318
0.0482318
0.0482318
0.0482318
0.0482318
0.0482318
0.0482318
0.0482318
0.0482318
0.0482318
0.0482318
0.0482318
0.0482318
0.0482318
0.0482318
0.0482318
0.0482318
0.0482318
0.0482318
0.0482318
0.0482318
0.0482318
0.0482318
0.0482318
0.0482318
0.0482318
0.0482318
0.0482318
0.0482318
0.0482318
0.0482318
0.0482318
0.0482318
0.0482318
0.0482318
0.0482318
0.0482318
0.0482318
0.0482318
0.0482318
0.0482318
0.0482318
0.0482318
0.0482318
0.0482318
0.0482318
0.0482318
0.0482318
0.0482318
0.0482318
0.0482318
0.0482318
0.0482318
0.0482318
0.0482318
0.0482318
0.0482318
0.0482318
0.0482318
0.0482318
0.0482318
0.0482318
0.0482318
0.0482318
0.0483837
0.0498233
0.0536908
0.0601089
0.0689895
0.0802229
0.0936921
0.109259
0.126788
0.146136
0.167167
0.189756
0.213739
0.238905
0.265036
0.291954
0.319504
0.347548
0.375959
0.404623
0.433443
0.462338
0.491306
0.520383
0.549599
0.578971
0.608537
0.638334
0.668367
0.698669
0.729254
0.760019
0.790778
0.821327
0.85143
0.880813
0.909172
0.936086
0.96096
0.983011
1.00122
1.01488
1.02408
1.02947
1.03197
1.0326
1.03247
1.03708
1.03722
1.03658
1.03409
1.02871
1.01954
1.00591
0.987743
0.96574
0.940922
0.914075
0.885779
0.85646
0.826432
0.795957
0.765265
0.734569
0.704059
0.673823
0.643856
0.614134
0.584632
0.555323
0.526181
0.497175
0.468271
0.439441
0.41069
0.382089
0.353743
0.325765
0.298277
0.271418
0.245346
0.220243
0.196318
0.17378
0.152794
0.13349
0.116004
0.100472
0.0870351
0.0758256
0.0669663
0.0605641
0.0567046
0.0552682
0.0551168
0.0551168
0.0551168
0.0551168
0.0551168
0.0551168
0.0551168
0.0551168
0.0551168
0.0551168
0.0551168
0.0551168
0.0551168
0.0551168
0.0551168
0.0551168
0.0551168
0.0551168
0.0551168
0.0551168
0.0551168
0.0551168
0.0551168
0.0551168
0.0551168
0.0551168
0.0551168
0.0551168
0.0551168
0.0551168
0.0551168
0.0551168
0.0551168
0.0551168
0.0551168
0.0551168
0.0551168
0.0551168
0.0551168
0.0551168
0.0551168
0.0551168
0.0551168
0.0551168
0.0551168
0.0551168
0.0551168
0.0551168
0.0551168
0.0551168
0.0551168
0.0551168
0.0551168
0.0551168
0.0551168
0.0551168
0.0551168
0.0551168
0.0551168
0.0551168
0.0551168
0.0551168
0.0551168
0.0551168
0.0551168
0.0551168
0.0551168
0.0551168
0.0551168
0.0551168
0.0551168
0.0551168
0.0551168
0.0551168
0.0551168
0.0551168
0.0551168
0.0551168
0.0551168
0.0551168
0.0551168
0.0551168
0.0551168
0.0551168
0.0551168
0.0551168
0.0551168
0.0551168
0.0551168
0.0551168
0.0551168
0.0551168
0.0551168
0.0551168
0.0551168
0.0551168
0.0551168
0.0551168
0.0551168
0.0551168
0.0551168
0.0551168
0.0551168
0.0551168
0.0551168
0.0551168
0.0552684
0.0567047
0.0605632
0.0669665
0.0758266
0.0870342
0.100472
0.116004
0.133492
0.152795
0.173778
0.196315
0.220243
0.24535
0.271421
0.298277
0.325764
0.353743
0.382089
0.410687
0.43944
0.468268
0.49717
0.52618
0.555328
0.584633
0.614131
0.643859
0.673823
0.704055
0.73457
0.765263
0.795951
0.82643
0.856464
0.885779
0.914073
0.940925
0.965742
0.987741
1.00591
1.01954
1.02871
1.03409
1.03658
1.03722
1.03708
1.04178
1.04191
1.04128
1.03879
1.03343
1.02427
1.01068
0.992552
0.9706
0.94584
0.919056
0.890826
0.861577
0.831619
0.801216
0.770596
0.739971
0.709533
0.679369
0.649471
0.619819
0.590387
0.561147
0.532073
0.503135
0.474299
0.445536
0.416853
0.388319
0.36004
0.332127
0.304704
0.277908
0.251897
0.226853
0.202984
0.180499
0.159562
0.140304
0.122858
0.107364
0.093958
0.0827748
0.0739363
0.0675492
0.0636987
0.0622657
0.0621146
0.0621146
0.0621146
0.0621146
0.0621146
0.0621146
0.0621146
0.0621146
0.0621146
0.0621146
0.0621146
0.0621146
0.0621146
0.0621146
0.0621146
0.0621146
0.0621146
0.0621146
0.0621146
0.0621146
0.0621146
0.0621146
0.0621146
0.0621146
0.0621146
0.0621146
0.0621146
0.0621146
0.0621146
0.0621146
0.0621146
0.0621146
0.0621146
0.0621146
0.0621146
0.0621146
0.0621146
0.0621146
0.0621146
0.0621146
0.0621146
0.0621146
0.0621146
0.0621146
0.0621146
0.0621146
0.0621146
0.0621146
0.0621146
0.0621146
0.0621146
0.0621146
0.0621146
0.0621146
0.0621146
0.0621146
0.0621146
0.0621146
0.0621146
0.0621146
0.0621146
0.0621146
0.0621146
0.0621146
0.0621146
0.0621146
0.0621146
0.0621146
0.0621146
0.0621146
0.0621146
0.0621146
0.0621146
0.0621146
0.0621146
0.0621146
0.0621146
0.0621146
0.0621146
0.0621146
0.0621146
0.0621146
0.0621146
0.0621146
0.0621146
0.0621146
0.0621146
0.0621146
0.0621146
0.0621146
0.0621146
0.0621146
0.0621146
0.0621146
0.0621146
0.0621146
0.0621146
0.0621146
0.0621146
0.0621146
0.0621146
0.0621146
0.0621146
0.0621146
0.0621146
0.0621146
0.0622658
0.0636988
0.0675483
0.0739365
0.0827759
0.0939571
0.107364
0.122859
0.140305
0.159563
0.180497
0.202981
0.226853
0.251901
0.277911
0.304704
0.332126
0.36004
0.388319
0.41685
0.445535
0.474296
0.50313
0.532072
0.561152
0.590388
0.619816
0.649474
0.679369
0.709529
0.739973
0.770594
0.80121
0.831617
0.86158
0.890827
0.919054
0.945843
0.970602
0.99255
1.01067
1.02427
1.03343
1.03879
1.04128
1.04191
1.04178
1.04655
1.04668
1.04605
1.04357
1.03821
1.02908
1.01552
0.997439
0.975539
0.950839
0.924119
0.895957
0.866777
0.836891
0.80656
0.776014
0.745463
0.715097
0.685005
0.655179
0.625598
0.596236
0.567066
0.538062
0.509193
0.480425
0.451732
0.423117
0.394652
0.36644
0.338594
0.311236
0.284505
0.258556
0.233572
0.20976
0.187329
0.166442
0.147229
0.129826
0.114368
0.100994
0.089838
0.0810206
0.0746487
0.0708074
0.0693779
0.0692271
0.0692271
0.0692271
0.0692271
0.0692271
0.0692271
0.0692271
0.0692271
0.0692271
0.0692271
0.0692271
0.0692271
0.0692271
0.0692271
0.0692271
0.0692271
0.0692271
0.0692271
0.0692271
0.0692271
0.0692271
0.0692271
0.0692271
0.0692271
0.0692271
0.0692271
0.0692271
0.0692271
0.0692271
0.0692271
0.0692271
0.0692271
0.0692271
0.0692271
0.0692271
0.0692271
0.0692271
0.0692271
0.0692271
0.0692271
0.0692271
0.0692271
0.0692271
0.0692271
0.0692271
0.0692271
0.0692271
0.0692271
0.0692271
0.0692271
0.0692271
0.0692271
0.0692271
0.0692271
0.0692271
0.0692271
0.0692271
0.0692271
0.0692271
0.0692271
0.0692271
0.0692271
0.0692271
0.0692271
0.0692271
0.0692271
0.0692271
0.0692271
0.0692271
0.0692271
0.0692271
0.0692271
0.0692271
0.0692271
0.0692271
0.0692271
0.0692271
0.0692271
0.0692271
0.0692271
0.0692271
0.0692271
0.0692271
0.0692271
0.0692271
0.0692271
0.0692271
0.0692271
0.0692271
0.0692271
0.0692271
0.0692271
0.0692271
0.0692271
0.0692271
0.0692271
0.0692271
0.0692271
0.0692271
0.0692271
0.0692271
0.0692271
0.0692271
0.0692271
0.0692271
0.0692271
0.069378
0.0708075
0.0746478
0.0810208
0.089839
0.100993
0.114368
0.129826
0.147231
0.166443
0.187327
0.209757
0.233572
0.25856
0.284507
0.311237
0.338593
0.36644
0.394651
0.423114
0.451731
0.480423
0.509187
0.53806
0.567071
0.596237
0.625595
0.655182
0.685005
0.715093
0.745464
0.776012
0.806555
0.836889
0.86678
0.895957
0.924117
0.950842
0.975541
0.997437
1.01552
1.02908
1.03821
1.04357
1.04605
1.04668
1.04655
1.05139
1.05153
1.0509
1.04842
1.04308
1.03397
1.02044
1.00241
0.98056
0.95592
0.929265
0.901171
0.872062
0.842249
0.811993
0.78152
0.751044
0.720752
0.690733
0.66098
0.631471
0.602181
0.573082
0.544148
0.515349
0.486653
0.458029
0.429484
0.401088
0.372945
0.345166
0.317876
0.291209
0.265324
0.2404
0.216646
0.19427
0.173434
0.154268
0.136907
0.121487
0.108146
0.0970168
0.088221
0.0818646
0.0780327
0.0766066
0.0764563
0.0764563
0.0764563
0.0764563
0.0764563
0.0764563
0.0764563
0.0764563
0.0764563
0.0764563
0.0764563
0.0764563
0.0764563
0.0764563
0.0764563
0.0764563
0.0764563
0.0764563
0.0764563
0.0764563
0.0764563
0.0764563
0.0764563
0.0764563
0.0764563
0.0764563
0.0764563
0.0764563
0.0764563
0.0764563
0.0764563
0.0764563
0.0764563
0.0764563
0.0764563
0.0764563
0.0764563
0.0764563
0.0764563
0.0764563
0.0764563
0.0764563
0.0764563
0.0764563
0.0764563
0.0764563
0.0764563
0.0764563
0.0764563
0.0764563
0.0764563
0.0764563
0.0764563
0.0764563
0.0764563
0.0764563
0.0764563
0.0764563
0.0764563
0.0764563
0.0764563
0.0764563
0.0764563
0.0764563
0.0764563
0.0764563
0.0764563
0.0764563
0.0764563
0.0764563
0.0764563
0.0764563
0.0764563
0.0764563
0.0764563
0.0764563
0.0764563
0.0764563
0.0764563
0.0764563
0.0764563
0.0764563
0.0764563
0.0764563
0.0764563
0.0764563
0.0764563
0.0764563
0.0764563
0.0764563
0.0764563
0.0764563
0.0764563
0.0764563
0.0764563
0.0764563
0.0764563
0.0764563
0.0764563
0.0764563
0.0764563
0.0764563
0.0764563
0.0764563
0.0764563
0.0764563
0.0766068
0.0780328
0.0818637
0.0882212
0.0970179
0.108145
0.121487
0.136907
0.15427
0.173435
0.194268
0.216643
0.2404
0.265328
0.291212
0.317876
0.345166
0.372945
0.401087
0.429481
0.458028
0.48665
0.515344
0.544147
0.573086
0.602182
0.631468
0.660983
0.690733
0.720749
0.751045
0.781519
0.811987
0.842247
0.872066
0.901172
0.929263
0.955922
0.980562
1.0024
1.02044
1.03397
1.04308
1.04842
1.0509
1.05153
1.05139
1.05632
1.05645
1.05582
1.05336
1.04803
1.03894
1.02545
1.00745
0.985663
0.961084
0.934495
0.906471
0.877435
0.847695
0.817514
0.787117
0.756716
0.7265
0.696556
0.666877
0.63744
0.608223
0.579196
0.550335
0.521607
0.492982
0.464429
0.435955
0.407629
0.379556
0.351847
0.324624
0.298023
0.272202
0.247341
0.223646
0.201325
0.180541
0.161423
0.144105
0.128723
0.115415
0.104313
0.0955393
0.0891988
0.0853764
0.0839538
0.0838038
0.0838038
0.0838038
0.0838038
0.0838038
0.0838038
0.0838038
0.0838038
0.0838038
0.0838038
0.0838038
0.0838038
0.0838038
0.0838038
0.0838038
0.0838038
0.0838038
0.0838038
0.0838038
0.0838038
0.0838038
0.0838038
0.0838038
0.0838038
0.0838038
0.0838038
0.0838038
0.0838038
0.0838038
0.0838038
0.0838038
0.0838038
0.0838038
0.0838038
0.0838038
0.0838038
0.0838038
0.0838038
0.0838038
0.0838038
0.0838038
0.0838038
0.0838038
0.0838038
0.0838038
0.0838038
0.0838038
0.0838038
0.0838038
0.0838038
0.0838038
0.0838038
0.0838038
0.0838038
0.0838038
0.0838038
0.0838038
0.0838038
0.0838038
0.0838038
0.0838038
0.0838038
0.0838038
0.0838038
0.0838038
0.0838038
0.0838038
0.0838038
0.0838038
0.0838038
0.0838038
0.0838038
0.0838038
0.0838038
0.0838038
0.0838038
0.0838038
0.0838038
0.0838038
0.0838038
0.0838038
0.0838038
0.0838038
0.0838038
0.0838038
0.0838038
0.0838038
0.0838038
0.0838038
0.0838038
0.0838038
0.0838038
0.0838038
0.0838038
0.0838038
0.0838038
0.0838038
0.0838038
0.0838038
0.0838038
0.0838038
0.0838038
0.0838038
0.0838038
0.0838038
0.0838038
0.083954
0.0853765
0.0891979
0.0955395
0.104314
0.115414
0.128723
0.144105
0.161424
0.180542
0.201323
0.223643
0.247341
0.272206
0.298026
0.324624
0.351846
0.379556
0.407629
0.435952
0.464428
0.492979
0.521602
0.550333
0.579201
0.608224
0.637438
0.666879
0.696556
0.726496
0.756718
0.787116
0.817508
0.847694
0.877438
0.906472
0.934493
0.961086
0.985665
1.00745
1.02545
1.03894
1.04803
1.05336
1.05582
1.05645
1.05632
1.06133
1.06146
1.06083
1.05837
1.05306
1.04399
1.03053
1.01259
0.990849
0.966332
0.939811
0.911858
0.882895
0.853231
0.823126
0.792806
0.762482
0.732342
0.702474
0.672869
0.643508
0.614364
0.585411
0.556622
0.527968
0.499415
0.470934
0.442532
0.414278
0.386276
0.358637
0.331483
0.30495
0.279194
0.254395
0.23076
0.208496
0.187764
0.168695
0.15142
0.136077
0.122803
0.11173
0.102978
0.0966532
0.0928404
0.0914215
0.0912719
0.0912719
0.0912719
0.0912719
0.0912719
0.0912719
0.0912719
0.0912719
0.0912719
0.0912719
0.0912719
0.0912719
0.0912719
0.0912719
0.0912719
0.0912719
0.0912719
0.0912719
0.0912719
0.0912719
0.0912719
0.0912719
0.0912719
0.0912719
0.0912719
0.0912719
0.0912719
0.0912719
0.0912719
0.0912719
0.0912719
0.0912719
0.0912719
0.0912719
0.0912719
0.0912719
0.0912719
0.0912719
0.0912719
0.0912719
0.0912719
0.0912719
0.0912719
0.0912719
0.0912719
0.0912719
0.0912719
0.0912719
0.0912719
0.0912719
0.0912719
0.0912719
0.0912719
0.0912719
0.0912719
0.0912719
0.0912719
0.0912719
0.0912719
0.0912719
0.0912719
0.0912719
0.0912719
0.0912719
0.0912719
0.0912719
0.0912719
0.0912719
0.0912719
0.0912719
0.0912719
0.0912719
0.0912719
0.0912719
0.0912719
0.0912719
0.0912719
0.0912719
0.0912719
0.0912719
0.0912719
0.0912719
0.0912719
0.0912719
0.0912719
0.0912719
0.0912719
0.0912719
0.0912719
0.0912719
0.0912719
0.0912719
0.0912719
0.0912719
0.0912719
0.0912719
0.0912719
0.0912719
0.0912719
0.0912719
0.0912719
0.0912719
0.0912719
0.0912719
0.0912719
0.0912719
0.0914216
0.0928405
0.0966522
0.102978
0.111731
0.122802
0.136077
0.15142
0.168696
0.187765
0.208494
0.230757
0.254395
0.279198
0.304952
0.331483
0.358636
0.386276
0.414278
0.442529
0.470933
0.499412
0.527963
0.556621
0.585416
0.614365
0.643505
0.672872
0.702473
0.732339
0.762483
0.792804
0.82312
0.853229
0.882898
0.911858
0.939809
0.966335
0.990851
1.01258
1.03053
1.04399
1.05306
1.05837
1.06083
1.06146
1.06133
1.06642
1.06655
1.06592
1.06347
1.05817
1.04913
1.0357
1.0178
0.99612
0.971667
0.945214
0.917333
0.888445
0.858857
0.82883
0.798588
0.768342
0.73828
0.708488
0.678961
0.649675
0.620606
0.591728
0.563013
0.534433
0.505953
0.477546
0.449217
0.421036
0.393106
0.365538
0.338454
0.311989
0.2863
0.261565
0.237991
0.215784
0.195106
0.176085
0.158855
0.143552
0.130312
0.119267
0.110538
0.10423
0.100427
0.0990115
0.0988623
0.0988623
0.0988623
0.0988623
0.0988623
0.0988623
0.0988623
0.0988623
0.0988623
0.0988623
0.0988623
0.0988623
0.0988623
0.0988623
0.0988623
0.0988623
0.0988623
0.0988623
0.0988623
0.0988623
0.0988623
0.0988623
0.0988623
0.0988623
0.0988623
0.0988623
0.0988623
0.0988623
0.0988623
0.0988623
0.0988623
0.0988623
0.0988623
0.0988623
0.0988623
0.0988623
0.0988623
0.0988623
0.0988623
0.0988623
0.0988623
0.0988623
0.0988623
0.0988623
0.0988623
0.0988623
0.0988623
0.0988623
0.0988623
0.0988623
0.0988623
0.0988623
0.0988623
0.0988623
0.0988623
0.0988623
0.0988623
0.0988623
0.0988623
0.0988623
0.0988623
0.0988623
0.0988623
0.0988623
0.0988623
0.0988623
0.0988623
0.0988623
0.0988623
0.0988623
0.0988623
0.0988623
0.0988623
0.0988623
0.0988623
0.0988623
0.0988623
0.0988623
0.0988623
0.0988623
0.0988623
0.0988623
0.0988623
0.0988623
0.0988623
0.0988623
0.0988623
0.0988623
0.0988623
0.0988623
0.0988623
0.0988623
0.0988623
0.0988623
0.0988623
0.0988623
0.0988623
0.0988623
0.0988623
0.0988623
0.0988623
0.0988623
0.0988623
0.0988623
0.0988623
0.0988623
0.0990116
0.100427
0.104229
0.110538
0.119268
0.130311
0.143552
0.158856
0.176087
0.195107
0.215782
0.237988
0.261565
0.286304
0.311992
0.338454
0.365537
0.393106
0.421035
0.449214
0.477545
0.50595
0.534428
0.563012
0.591732
0.620607
0.649672
0.678964
0.708488
0.738276
0.768343
0.798586
0.828824
0.858855
0.888448
0.917333
0.945212
0.97167
0.996122
1.0178
1.0357
1.04913
1.05817
1.06347
1.06592
1.06655
1.06642
1.07159
1.07172
1.0711
1.06865
1.06336
1.05435
1.04096
1.0231
1.00148
0.977089
0.950706
0.922898
0.894085
0.864576
0.834627
0.804465
0.774298
0.744315
0.714602
0.685152
0.655943
0.626951
0.598148
0.569509
0.541003
0.512598
0.484266
0.456012
0.427904
0.400048
0.372552
0.345539
0.319144
0.293522
0.268853
0.24534
0.223192
0.202568
0.183597
0.166413
0.15115
0.137944
0.126928
0.118222
0.11193
0.108138
0.106726
0.106577
0.106577
0.106577
0.106577
0.106577
0.106577
0.106577
0.106577
0.106577
0.106577
0.106577
0.106577
0.106577
0.106577
0.106577
0.106577
0.106577
0.106577
0.106577
0.106577
0.106577