/*--------------------------------*- C++ -*----------------------------------*\
| =========                 |                                                 |
| \\      /  F ield         | OpenFOAM: The Open Source CFD Toolbox           |
|  \\    /   O peration     | Version:  v2006                                 |
|   \\  /    A nd           | Website:  www.openfoam.com                      |
|    \\/     M anipulation  |                                                 |
\*---------------------------------------------------------------------------*/
FoamFile
{
    version     2.0;
    format      ascii;
    class       volScalarField;
    location    "10";
    object      Omega;
}
// * * * * * * * * * * * * * * * * * * * * * * * * * * * * * * * * * * * * * //

dimensions      [0 0 -1 0 0 0 0];


internalField   nonuniform List<scalar> 
40000
(
5.68394
5.68832
5.66137
5.48386
5.00273
4.18752
3.06849
1.81011
0.766718
0.0597244
0.403514
0.671446
0.824467
0.894787
0.918965
0.912267
0.891167
0.865708
0.84254
0.818699
0.795873
0.774288
0.753889
0.735237
0.717585
0.70061
0.682558
0.662128
0.640387
0.618188
0.595613
0.572754
0.54969
0.526834
0.504374
0.483614
0.465953
0.45077
0.437654
0.426426
0.417746
0.411179
0.408952
0.409207
0.418593
0.432402
0.476767
0.528639
0.558456
0.587493
0.610121
0.632223
0.65137
0.669679
0.686245
0.70188
0.716265
0.729727
0.742167
0.753726
0.764382
0.774203
0.783195
0.791395
0.798818
0.805489
0.811423
0.816643
0.821161
0.824998
0.828167
0.830684
0.832564
0.833822
0.834474
0.834533
0.834012
0.832922
0.831276
0.829086
0.826364
0.823123
0.819378
0.815137
0.810416
0.805227
0.799582
0.793495
0.786979
0.780046
0.772714
0.76499
0.756892
0.748434
0.739629
0.730491
0.721035
0.711276
0.701229
0.690908
0.680329
0.669506
0.658455
0.647193
0.635732
0.624089
0.612281
0.60032
0.588225
0.576011
0.56369
0.551281
0.538799
0.526258
0.513674
0.50106
0.488434
0.475809
0.463202
0.450622
0.438089
0.425614
0.413211
0.400893
0.388676
0.376571
0.36459
0.352748
0.341056
0.329527
0.31817
0.306999
0.296025
0.285257
0.274707
0.264387
0.254303
0.244471
0.234898
0.225602
0.216586
0.207884
0.199488
0.191459
0.183771
0.176538
0.169674
0.163401
0.157479
0.15227
0.147237
0.142648
0.137436
0.128967
0.121071
0.11707
0.114107
0.110523
0.10647
0.100782
0.093365
0.0832315
0.069786
0.052037
0.0287748
0.00155267
0.0414068
0.0919076
0.155418
0.23378
0.328519
0.442657
0.575063
0.729737
0.900888
1.09091
1.3015
1.53713
1.79732
2.0862
2.4155
2.78816
3.21048
3.72976
4.35042
5.08372
5.9388
6.92438
8.04063
9.27
10.6294
11.9306
13.0277
13.373
12.6188
11.2273
9.6357
8.1314
6.92162
6.04375
5.72352
5.68508
5.63362
5.44724
4.98606
4.21573
3.15921
1.95796
0.928444
0.203724
0.282859
0.575364
0.747592
0.833803
0.869767
0.87237
0.858069
0.837367
0.817411
0.79635
0.775707
0.755909
0.736998
0.7195
0.702833
0.686667
0.669499
0.650093
0.629273
0.607867
0.586023
0.563858
0.541471
0.519263
0.497473
0.477249
0.459892
0.44499
0.432173
0.421296
0.412929
0.406822
0.404852
0.40582
0.415237
0.430243
0.471305
0.518865
0.548479
0.576415
0.598707
0.62007
0.638759
0.656469
0.672551
0.687657
0.701567
0.714547
0.726539
0.737657
0.747895
0.757305
0.765912
0.773746
0.780813
0.787146
0.792757
0.797666
0.801894
0.805458
0.808367
0.810645
0.812299
0.81334
0.813797
0.813676
0.812989
0.81174
0.80996
0.807644
0.804808
0.80147
0.797645
0.79333
0.788553
0.783319
0.77765
0.771542
0.765025
0.758094
0.750779
0.743093
0.735033
0.726625
0.717885
0.708824
0.699447
0.68979
0.679842
0.669631
0.659178
0.64848
0.63757
0.626451
0.615142
0.603659
0.592016
0.580228
0.568309
0.556277
0.544146
0.531929
0.519643
0.507303
0.494922
0.482516
0.4701
0.457688
0.445293
0.432931
0.420615
0.408358
0.396175
0.384077
0.37208
0.360196
0.348435
0.336812
0.325339
0.314028
0.302887
0.291931
0.281171
0.270616
0.260278
0.250167
0.240291
0.230666
0.221299
0.212206
0.203394
0.194891
0.186698
0.178864
0.171377
0.164329
0.157662
0.151551
0.145817
0.140731
0.135861
0.131368
0.126338
0.11877
0.111639
0.107597
0.104423
0.100654
0.0962872
0.0902933
0.0824743
0.0719158
0.0579819
0.0396924
0.0158252
0.0151899
0.055614
0.106639
0.17048
0.248885
0.343423
0.456639
0.58786
0.740151
0.908662
1.09572
1.303
1.53456
1.79024
2.07472
2.39837
2.7644
3.18178
3.69198
4.29903
5.01384
5.84377
6.79597
7.86752
9.0427
10.3215
11.5316
12.522
12.8191
12.1578
10.9212
9.47702
8.08456
6.93954
6.09721
5.7599
5.68368
5.61112
5.41886
4.97841
4.25146
3.25377
2.10622
1.09084
0.349821
0.159692
0.476642
0.668404
0.770724
0.81877
0.830853
0.823541
0.807799
0.791268
0.773109
0.754771
0.736856
0.719512
0.703247
0.687625
0.672326
0.656062
0.637652
0.617731
0.597099
0.575959
0.554455
0.532705
0.511102
0.489922
0.470193
0.45313
0.438496
0.425958
0.415407
0.407333
0.40164
0.399923
0.401496
0.410963
0.426842
0.465167
0.509123
0.538327
0.565219
0.587095
0.607734
0.625926
0.643036
0.658615
0.673187
0.686606
0.6991
0.710634
0.721299
0.731111
0.740116
0.748324
0.755774
0.762478
0.768464
0.773755
0.77835
0.782285
0.785565
0.788209
0.790232
0.791651
0.792482
0.792729
0.792421
0.791558
0.790154
0.788225
0.785785
0.782834
0.779402
0.775478
0.771096
0.76626
0.760985
0.755271
0.749147
0.742619
0.735703
0.728402
0.720741
0.712724
0.704366
0.695687
0.686701
0.677414
0.667838
0.657995
0.647905
0.637566
0.627007
0.616231
0.60526
0.594099
0.582777
0.571303
0.559694
0.547952
0.536106
0.524161
0.512147
0.500058
0.487923
0.475749
0.463556
0.451356
0.439157
0.426981
0.414841
0.402746
0.390713
0.378755
0.366884
0.355111
0.343453
0.331919
0.320521
0.309272
0.298184
0.287267
0.276533
0.265993
0.255658
0.245537
0.235641
0.225981
0.216568
0.207413
0.19853
0.189928
0.181632
0.173646
0.166015
0.158732
0.151878
0.145411
0.139473
0.133927
0.128977
0.124273
0.119897
0.115064
0.108234
0.101728
0.0976744
0.0943197
0.0903757
0.0857198
0.0794335
0.071237
0.0602757
0.0458809
0.0270819
0.00264843
0.0289924
0.0699295
0.121404
0.185493
0.263856
0.35807
0.47028
0.600156
0.749992
0.915728
1.09964
1.30341
1.53069
1.7816
2.06133
2.37899
2.73814
3.14977
3.65033
4.24333
4.93922
5.74368
6.66231
7.68965
8.81114
10.0132
11.1384
12.036
12.2985
11.7267
10.6335
9.32654
8.03892
6.95521
6.14575
5.79289
5.68191
5.58915
5.39164
4.9713
4.28626
3.34546
2.2509
1.25226
0.497665
0.0337313
0.374848
0.586485
0.705235
0.765761
0.787626
0.787591
0.777072
0.764177
0.749047
0.733121
0.717179
0.701469
0.68651
0.671986
0.657602
0.642262
0.624853
0.605853
0.586018
0.5656
0.544772
0.523664
0.502681
0.482105
0.462884
0.446139
0.431788
0.419541
0.409307
0.401544
0.396243
0.394799
0.396909
0.406456
0.422935
0.458726
0.499415
0.528017
0.553886
0.57527
0.595194
0.612866
0.629373
0.644425
0.65846
0.671381
0.683382
0.694444
0.704652
0.714029
0.722616
0.730419
0.737479
0.743819
0.749446
0.754393
0.758682
0.762307
0.765297
0.767677
0.769439
0.770614
0.771226
0.771267
0.770759
0.76972
0.768157
0.766077
0.763497
0.760431
0.756888
0.752876
0.748426
0.743522
0.738196
0.732447
0.726299
0.71976
0.712846
0.705564
0.697922
0.689944
0.681644
0.673025
0.6641
0.654901
0.645421
0.635683
0.625702
0.615487
0.60506
0.594424
0.583595
0.5726
0.561435
0.550128
0.538694
0.527138
0.515478
0.503737
0.491912
0.480032
0.468102
0.456143
0.444161
0.432177
0.420206
0.408252
0.396339
0.384472
0.372667
0.360938
0.349301
0.337763
0.326333
0.315031
0.303865
0.292848
0.281989
0.271302
0.260797
0.250484
0.240373
0.230476
0.220804
0.211364
0.202172
0.193235
0.184569
0.176182
0.1681
0.160328
0.152906
0.145835
0.139181
0.132919
0.127163
0.121807
0.117006
0.112472
0.108232
0.103621
0.0974695
0.0915416
0.0875049
0.0839872
0.0798664
0.07493
0.0683489
0.0597806
0.0484182
0.0335691
0.0142698
0.0107139
0.0429428
0.0843572
0.136221
0.200487
0.278727
0.372493
0.483596
0.611957
0.759236
0.922068
1.1027
1.30275
1.52558
1.77157
2.04624
2.35762
2.70968
3.11485
3.605
4.18318
4.85916
5.63704
6.5209
7.50298
8.56915
9.69471
10.7367
11.5487
11.785
11.3003
10.3437
9.16964
7.98569
6.96457
6.18854
5.82179
5.67935
5.56749
5.36544
4.96441
4.31974
3.43386
2.39157
1.41228
0.646955
0.0949291
0.269966
0.501773
0.637269
0.710676
0.742637
0.750179
0.745128
0.736118
0.724134
0.710742
0.696861
0.682872
0.669272
0.655895
0.642479
0.628088
0.611703
0.593634
0.574614
0.554939
0.534797
0.514354
0.49399
0.474031
0.455322
0.43892
0.424861
0.412908
0.403005
0.39554
0.390635
0.389465
0.392063
0.401698
0.418537
0.45197
0.48969
0.51753
0.542401
0.563231
0.582452
0.599575
0.615471
0.629985
0.643471
0.655889
0.667379
0.677965
0.687709
0.696636
0.704784
0.712184
0.718852
0.724819
0.730085
0.734688
0.738644
0.741953
0.744654
0.746753
0.74826
0.749197
0.749564
0.749399
0.748695
0.747475
0.74574
0.743511
0.740782
0.737599
0.733938
0.729846
0.7253
0.720338
0.714952
0.709174
0.702996
0.69644
0.689522
0.68225
0.67464
0.666698
0.658448
0.649891
0.641041
0.631921
0.62254
0.612904
0.60303
0.592941
0.582643
0.572146
0.561471
0.550635
0.539637
0.528508
0.517241
0.505874
0.494407
0.482863
0.471241
0.459567
0.447853
0.436109
0.424342
0.412583
0.400837
0.389118
0.37743
0.365802
0.354229
0.342739
0.331336
0.320029
0.308839
0.297781
0.286846
0.276069
0.265446
0.254995
0.244724
0.234645
0.224767
0.215101
0.205657
0.196446
0.187479
0.178767
0.170324
0.162161
0.154298
0.146747
0.13954
0.132686
0.12624
0.120187
0.11462
0.10946
0.10482
0.100462
0.0963752
0.092003
0.0864766
0.0810858
0.0770859
0.0734232
0.0691259
0.0639161
0.0570395
0.0481056
0.0363444
0.021048
0.00125775
0.0242571
0.057036
0.0988889
0.151084
0.215454
0.293485
0.386681
0.496572
0.623253
0.767873
0.927692
1.10488
1.30104
1.51926
1.76015
2.02945
2.33429
2.67901
3.07703
3.55607
4.11864
4.77381
5.52411
6.37204
7.30798
8.31755
9.36733
10.3285
11.0621
11.2797
10.8781
10.0511
9.00513
7.92332
6.96602
6.2247
5.84608
5.67559
5.54581
5.34001
4.9574
4.35144
3.51852
2.52781
1.57041
0.79736
0.226154
0.161972
0.414203
0.566777
0.65345
0.695824
0.71124
0.711944
0.70702
0.698342
0.687607
0.675882
0.663678
0.651515
0.639351
0.626943
0.613542
0.598187
0.581071
0.562893
0.543971
0.52453
0.50476
0.485017
0.465686
0.447494
0.431458
0.417704
0.40605
0.39648
0.389327
0.384798
0.383917
0.386948
0.396655
0.413658
0.444913
0.479915
0.506858
0.530751
0.550985
0.569494
0.586034
0.601319
0.615281
0.628204
0.640097
0.651081
0.661175
0.670454
0.678921
0.686643
0.693621
0.699878
0.705453
0.710367
0.714622
0.718232
0.721236
0.72364
0.725445
0.72669
0.727374
0.727511
0.727126
0.726217
0.7248
0.722898
0.720504
0.717647
0.714328
0.710562
0.706363
0.701733
0.696701
0.69126
0.685433
0.679234
0.672663
0.665745
0.658485
0.650899
0.643003
0.634788
0.626293
0.617526
0.608485
0.599187
0.589661
0.579909
0.569936
0.559767
0.549416
0.538898
0.528213
0.517385
0.506428
0.495349
0.484173
0.472897
0.461547
0.450135
0.438671
0.427176
0.415644
0.404111
0.392579
0.381062
0.369575
0.358127
0.346731
0.335404
0.324153
0.312985
0.301923
0.290981
0.280164
0.269479
0.258937
0.248559
0.238354
0.228323
0.218478
0.208839
0.199413
0.190204
0.181228
0.172493
0.164013
0.1558
0.147865
0.140229
0.132903
0.125919
0.119288
0.113055
0.107218
0.101847
0.0968876
0.0924175
0.0882405
0.084323
0.0802063
0.0752553
0.0703637
0.0664183
0.0626269
0.0581533
0.0526774
0.0455047
0.036209
0.024054
0.0083176
0.011953
0.0379764
0.0712684
0.113517
0.165984
0.230382
0.308117
0.400626
0.509201
0.634034
0.775913
0.932582
1.1062
1.29829
1.51172
1.74734
2.011
2.30902
2.64617
3.03637
3.50361
4.04982
4.6833
5.40508
6.21615
7.10522
8.05732
9.03257
9.91585
10.5782
10.7833
10.4601
9.75484
8.83197
7.85063
6.95854
6.25316
5.86521
5.67026
5.52403
5.31484
4.9501
4.38112
3.59905
2.65924
1.7262
0.948492
0.359752
0.0508378
0.323708
0.493672
0.594004
0.647142
0.670729
0.677459
0.676845
0.671634
0.663677
0.654208
0.643868
0.633234
0.622334
0.610989
0.598611
0.584289
0.568151
0.55084
0.532696
0.513969
0.494875
0.47578
0.457055
0.439395
0.423746
0.410313
0.398972
0.389725
0.382898
0.378721
0.378141
0.381538
0.391321
0.408329
0.437553
0.470061
0.496009
0.518922
0.538504
0.556294
0.572233
0.586906
0.600302
0.612658
0.624018
0.634489
0.644082
0.652873
0.660885
0.668164
0.674711
0.680569
0.685748
0.690285
0.694179
0.697454
0.700139
0.702234
0.703755
0.704723
0.705147
0.705055
0.704441
0.70332
0.701713
0.699629
0.697074
0.69408
0.690623
0.686742
0.682434
0.677732
0.672612
0.667118
0.661252
0.65502
0.648438
0.641513
0.634267
0.6267
0.618835
0.610679
0.60224
0.593539
0.584578
0.575378
0.565962
0.556315
0.546473
0.536438
0.526232
0.515861
0.505341
0.494687
0.483899
0.473007
0.462018
0.450946
0.439801
0.428595
0.417345
0.406066
0.394764
0.383462
0.37216
0.36088
0.349624
0.338426
0.327267
0.316189
0.305179
0.294266
0.283457
0.27276
0.262183
0.251755
0.241468
0.231339
0.221374
0.211593
0.201997
0.192597
0.183415
0.174449
0.165713
0.157217
0.148974
0.140997
0.133296
0.125893
0.1188
0.112044
0.10564
0.0996279
0.0940115
0.0888458
0.08409
0.0797985
0.0758105
0.0720748
0.0682248
0.0638063
0.0593784
0.0555016
0.0515951
0.0469474
0.0412112
0.0337425
0.0240909
0.0115454
0.00462359
0.0253606
0.0518674
0.0856349
0.128235
0.18091
0.245261
0.32261
0.414317
0.521461
0.644315
0.783345
0.936727
1.10664
1.2945
1.50299
1.73317
1.99093
2.28189
2.61117
2.99292
3.44768
3.97684
4.58782
5.28025
6.05383
6.8953
7.78944
8.69189
9.50032
10.0985
10.2962
10.0466
9.4549
8.64974
7.76675
6.9411
6.27307
5.87833
5.66273
5.50164
5.28971
4.94201
4.40839
3.67525
2.78548
1.87911
1.09994
0.495452
0.063462
0.230195
0.417862
0.532269
0.596505
0.628579
0.641607
0.645581
0.643965
0.638921
0.631824
0.623442
0.614404
0.604813
0.594608
0.583277
0.570011
0.554867
0.53844
0.521092
0.503105
0.484702
0.466264
0.448159
0.431037
0.415787
0.402689
0.391671
0.382753
0.376243
0.372413
0.372109
0.375845
0.385688
0.402553
0.429854
0.46007
0.484958
0.506894
0.525777
0.542861
0.55817
0.572214
0.585033
0.596825
0.607639
0.617576
0.626668
0.63497
0.642519
0.649332
0.655444
0.660894
0.665682
0.66983
0.673368
0.676303
0.678657
0.680431
0.681661
0.682355
0.682527
0.682178
0.681336
0.680009
0.678211
0.675937
0.673222
0.670066
0.666485
0.662485
0.658073
0.653273
0.64809
0.642534
0.636625
0.630356
0.623757
0.616834
0.609589
0.602043
0.594211
0.586107
0.577724
0.569091
0.560216
0.551114
0.541799
0.532271
0.522559
0.512665
0.502601
0.492383
0.482019
0.471537
0.460938
0.450228
0.439431
0.428568
0.417624
0.406636
0.395604
0.384543
0.373474
0.362399
0.351338
0.340292
0.32929
0.318325
0.307426
0.296586
0.285834
0.275177
0.264624
0.25418
0.243855
0.233676
0.223651
0.213773
0.204065
0.194532
0.185191
0.176047
0.167112
0.158393
0.149904
0.141649
0.133653
0.125917
0.118459
0.111295
0.104439
0.097918
0.0917464
0.0859614
0.0805677
0.0756143
0.0710681
0.066965
0.0631716
0.0596305
0.0560544
0.0521311
0.0481338
0.0443352
0.040325
0.0355059
0.0295151
0.021753
0.0117504
0.00118114
0.0177744
0.0389615
0.0659263
0.100131
0.143036
0.195856
0.260084
0.336958
0.42774
0.533349
0.654082
0.790162
0.940176
1.10623
1.2897
1.4931
1.71768
1.96927
2.25294
2.57408
2.94673
3.38839
3.89984
4.48761
5.15001
5.88525
6.67897
7.51517
8.34658
9.08398
9.62479
9.81889
9.63743
9.15147
8.45797
7.67111
6.91265
6.28375
5.88477
5.65249
5.47819
5.26447
4.93278
4.43288
3.74677
2.90612
2.02865
1.25127
0.633007
0.18084
0.133616
0.339303
0.468174
0.543833
0.58472
0.604346
0.613152
0.615325
0.61331
0.6087
0.602368
0.594992
0.586807
0.577776
0.567525
0.55534
0.541214
0.525696
0.509156
0.491932
0.474234
0.456451
0.438976
0.422403
0.407572
0.394823
0.384129
0.375542
0.369347
0.365855
0.365823
0.369866
0.379712
0.396316
0.421831
0.449924
0.473697
0.494653
0.512809
0.529171
0.543842
0.557249
0.569467
0.580684
0.590946
0.600343
0.608921
0.616734
0.623798
0.630158
0.635835
0.640859
0.645239
0.649011
0.652174
0.654759
0.656778
0.658241
0.659176
0.659582
0.65949
0.658891
0.657822
0.656282
0.654272
0.651822
0.648938
0.645627
0.641904
0.637784
0.633273
0.628372
0.623117
0.617501
0.611538
0.605242
0.598621
0.591689
0.584462
0.576937
0.569139
0.561073
0.552761
0.544197
0.535409
0.526404
0.517189
0.507787
0.498197
0.488433
0.478525
0.468465
0.458269
0.447956
0.437536
0.427021
0.416427
0.405754
0.395023
0.384248
0.373445
0.362613
0.351774
0.340942
0.330118
0.319315
0.308563
0.297847
0.287197
0.276618
0.26612
0.255722
0.245426
0.235245
0.225188
0.215267
0.205492
0.195875
0.186425
0.177155
0.168066
0.159187
0.150503
0.142036
0.1338
0.1258
0.118055
0.110564
0.103352
0.0964318
0.0898191
0.0835392
0.0776057
0.0720534
0.0668895
0.0621535
0.057821
0.0539157
0.0503225
0.0469873
0.0436904
0.0402267
0.0366311
0.0329183
0.0288154
0.0238265
0.0175875
0.00953345
0.000815357
0.0141258
0.0311349
0.0527517
0.0801499
0.114751
0.157914
0.210815
0.274838
0.351146
0.440903
0.544859
0.663333
0.79638
0.942911
1.10499
1.28391
1.4821
1.70088
1.94608
2.22222
2.53493
2.89791
3.32584
3.81901
4.38291
5.01462
5.71091
6.45703
7.23538
7.99824
8.6685
9.15811
9.35183
9.2329
8.8446
8.25655
7.5633
6.87255
6.28416
5.88391
5.63884
5.45341
5.23872
4.9223
4.45443
3.8132
3.02084
2.17426
1.40195
0.772193
0.301099
0.0338999
0.257907
0.401615
0.489086
0.539109
0.565633
0.579507
0.585652
0.586825
0.584812
0.580613
0.574988
0.568271
0.56047
0.551357
0.54028
0.527186
0.512596
0.496913
0.480444
0.463459
0.446337
0.429504
0.413489
0.399096
0.386699
0.37633
0.36808
0.362207
0.359035
0.35928
0.363575
0.373396
0.389649
0.413482
0.439595
0.462219
0.482184
0.499581
0.515199
0.529228
0.541991
0.553606
0.564228
0.573935
0.582788
0.590839
0.598143
0.604728
0.610627
0.615861
0.620459
0.62443
0.627808
0.630594
0.632825
0.634506
0.635654
0.636281
0.636403
0.636034
0.635195
0.633884
0.632125
0.629911
0.627276
0.624222
0.620755
0.61689
0.612648
0.608021
0.603039
0.597701
0.592021
0.586007
0.57968
0.573041
0.566095
0.558879
0.551379
0.543615
0.535596
0.527342
0.518853
0.510151
0.501242
0.492135
0.482843
0.473387
0.463768
0.453999
0.444103
0.434078
0.423947
0.413709
0.403386
0.392985
0.38252
0.372012
0.361455
0.350876
0.340277
0.329677
0.319084
0.308499
0.297956
0.287442
0.276985
0.266592
0.256277
0.246048
0.235904
0.225867
0.21595
0.206162
0.196509
0.186999
0.177652
0.168468
0.159463
0.150643
0.142015
0.133593
0.125385
0.117405
0.109668
0.102173
0.0949401
0.0879776
0.0813067
0.0749432
0.0689088
0.0632196
0.0579046
0.0529761
0.0484637
0.0443506
0.0406487
0.0372637
0.0341419
0.0311266
0.0280927
0.0248714
0.0212494
0.0170639
0.0119085
0.0054258
0.00291843
0.0136072
0.0272929
0.0447051
0.0667282
0.0945363
0.129493
0.172865
0.22578
0.289525
0.365163
0.453783
0.555981
0.672085
0.801989
0.944929
1.10291
1.27716
1.46998
1.68284
1.92141
2.1898
2.49378
2.8465
3.26028
3.7346
4.27406
4.87456
5.53192
6.23003
6.95129
7.64843
8.25563
8.69988
8.89514
8.83341
8.53465
8.04587
7.44271
6.81984
6.27378
5.87494
5.62111
5.42672
5.21172
4.91015
4.47269
3.87431
3.12927
2.31545
1.55145
0.912686
0.424013
0.0690574
0.173553
0.332513
0.432168
0.49168
0.525382
0.544596
0.554914
0.559433
0.56013
0.558162
0.554386
0.549192
0.542698
0.534755
0.524806
0.512781
0.499145
0.484316
0.468627
0.452373
0.435932
0.419741
0.404289
0.390336
0.378317
0.368294
0.360369
0.354817
0.351957
0.352461
0.356965
0.366733
0.382556
0.404783
0.429051
0.450503
0.469477
0.486093
0.500966
0.514312
0.526426
0.537421
0.547456
0.556582
0.564887
0.572412
0.579208
0.58531
0.590727
0.595517
0.599674
0.603234
0.60621
0.608624
0.610498
0.611839
0.61266
0.612977
0.612817
0.612173
0.61108
0.60953
0.607539
0.605127
0.602302
0.59907
0.59544
0.591445
0.587072
0.582334
0.577261
0.571844
0.566098
0.56003
0.553668
0.547012
0.540069
0.532846
0.525377
0.517643
0.509678
0.501482
0.493069
0.484446
0.475641
0.46664
0.457471
0.448141
0.438671
0.429054
0.419311
0.409457
0.399497
0.389454
0.379333
0.369129
0.358882
0.348587
0.338257
0.327905
0.31754
0.307182
0.296824
0.286494
0.276199
0.265946
0.255749
0.245623
0.235566
0.225601
0.215726
0.205964
0.196313
0.186796
0.177411
0.168181
0.159105
0.15019
0.14145
0.132899
0.124537
0.116386
0.108445
0.100729
0.0932513
0.0860134
0.0790366
0.0723374
0.0659232
0.0598122
0.0540282
0.0485883
0.0435165
0.0388269
0.0345441
0.0306554
0.0271637
0.0239926
0.021093
0.0183605
0.0157291
0.0128557
0.00932738
0.00506799
0.000250249
0.0069727
0.015604
0.0266282
0.040682
0.0584811
0.0808913
0.109083
0.144353
0.18788
0.240741
0.304129
0.379012
0.466385
0.566733
0.680335
0.807023
0.946271
1.10004
1.26948
1.45682
1.6636
1.89533
2.15578
2.45075
2.79276
3.19176
3.6467
4.16122
4.73031
5.34847
5.99907
6.6644
7.2986
7.84711
8.25117
8.44933
8.43919
8.22222
7.8262
7.30966
6.7544
6.25209
5.85733
5.59868
5.39754
5.18311
4.89593
4.48735
3.93009
3.2312
2.45169
1.69925
1.0541
0.549293
0.175294
0.0861609
0.260779
0.372988
0.442336
0.483541
0.50837
0.523052
0.531079
0.534614
0.534999
0.533145
0.529562
0.524431
0.517698
0.508906
0.497973
0.485327
0.471361
0.456482
0.440969
0.425236
0.409678
0.394795
0.3813
0.369673
0.359997
0.352402
0.347155
0.344613
0.345351
0.350018
0.359707
0.375025
0.395737
0.418279
0.438529
0.45651
0.472325
0.486445
0.499097
0.510549
0.520918
0.530349
0.538893
0.546645
0.553641
0.559917
0.565515
0.570467
0.574792
0.578508
0.581656
0.584229
0.586269
0.587771
0.588761
0.58926
0.589269
0.588808
0.587893
0.586541
0.584747
0.582531
0.579909
0.576893
0.573485
0.569704
0.565557
0.561052
0.556216
0.551042
0.545537
0.539736
0.533617
0.527223
0.520539
0.513594
0.506386
0.498931
0.491235
0.483317
0.475187
0.46685
0.458312
0.449603
0.440715
0.431668
0.422469
0.41314
0.40368
0.394102
0.384422
0.374645
0.364785
0.354857
0.344873
0.334835
0.324755
0.314654
0.304533
0.294412
0.284291
0.274183
0.264111
0.254072
0.244082
0.234154
0.224281
0.214498
0.204798
0.195207
0.185714
0.176344
0.167105
0.157997
0.149034
0.14023
0.131591
0.123124
0.11485
0.106763
0.098882
0.0912156
0.0837705
0.076554
0.0695802
0.0628706
0.0564329
0.0502798
0.0444259
0.0388983
0.0337108
0.0288883
0.0244418
0.0203947
0.0167342
0.013461
0.0105083
0.00783876
0.00538798
0.00313379
0.000584134
0.00284905
0.00717649
0.0126534
0.0196102
0.028525
0.0398794
0.054294
0.0724577
0.095241
0.123785
0.159325
0.202958
0.255701
0.318646
0.392686
0.478714
0.577091
0.688088
0.811492
0.946947
1.09639
1.26092
1.44265
1.64321
1.86791
2.12026
2.4059
2.73668
3.12034
3.55562
4.04492
4.58228
5.1612
5.7651
6.37579
6.95018
7.44436
7.81288
8.01498
8.0507
7.90799
7.59795
7.16435
6.67601
6.21832
5.83045
5.57084
5.36537
5.15276
4.87939
4.49822
3.98034
3.32647
2.58252
1.84473
1.19602
0.676612
0.284823
0.00436213
0.186283
0.311466
0.390999
0.440045
0.470758
0.490031
0.501724
0.50824
0.511078
0.51124
0.509338
0.505635
0.500176
0.492587
0.482746
0.471108
0.458066
0.444007
0.429249
0.414224
0.399318
0.385009
0.371993
0.360749
0.35142
0.344167
0.33923
0.336979
0.337934
0.342743
0.352296
0.367065
0.386333
0.40724
0.426293
0.443272
0.458256
0.47161
0.483571
0.49435
0.504088
0.5129
0.520867
0.52805
0.534499
0.540258
0.545355
0.549821
0.553683
0.556958
0.559686
0.561856
0.563507
0.564642
0.565279
0.56544
0.565138
0.564388
0.563195
0.561575
0.559544
0.557099
0.554267
0.551055
0.547469
0.54353
0.539238
0.534607
0.529656
0.52438
0.518805
0.512931
0.506773
0.500336
0.493642
0.486682
0.479486
0.472045
0.464401
0.456526
0.448454
0.440193
0.431748
0.423134
0.414357
0.405438
0.396383
0.387186
0.37788
0.368473
0.35897
0.34938
0.339715
0.329982
0.320208
0.310381
0.300532
0.290657
0.280775
0.270893
0.261018
0.25117
0.241349
0.231576
0.22185
0.212185
0.202588
0.193072
0.183658
0.174332
0.165122
0.156033
0.147067
0.138243
0.129561
0.121036
0.112687
0.1045
0.0965043
0.0886914
0.0810823
0.0736909
0.0665174
0.0595757
0.0528734
0.0464385
0.040258
0.034374
0.0287833
0.0235176
0.0185888
0.0140193
0.00982163
0.0060141
0.00258707
0.00046248
0.00319014
0.00562495
0.00779547
0.00969546
0.0119421
0.0152811
0.0196709
0.0253028
0.0324901
0.0416853
0.0533633
0.068128
0.086636
0.109776
0.138641
0.174408
0.218092
0.270646
0.33308
0.406178
0.490747
0.587062
0.695369
0.815392
0.94698
1.09201
1.25152
1.42753
1.62175
1.83928
2.08318
2.35934
2.67831
3.04657
3.46169
3.92552
4.43104
4.97118
5.52911
6.08689
6.60477
7.04883
7.38593
7.59202
7.66865
7.59253
7.36203
7.007
6.58438
6.17215
5.79374
5.53703
5.3297
5.11994
4.86029
4.50523
4.0247
3.41464
2.70739
1.98729
1.33797
0.805803
0.397412
0.0981247
0.108959
0.247496
0.337597
0.394807
0.431703
0.4558
0.471318
0.480959
0.486357
0.48865
0.488516
0.486306
0.482176
0.475815
0.467123
0.456511
0.444402
0.431187
0.417211
0.402883
0.388638
0.374917
0.362392
0.351552
0.342584
0.335656
0.331031
0.329044
0.330211
0.335125
0.344505
0.358674
0.376558
0.395915
0.413778
0.429758
0.443898
0.45647
0.467719
0.477815
0.486914
0.495102
0.502476
0.509082
0.514989
0.52022
0.524812
0.528787
0.532187
0.535022
0.537312
0.539077
0.540333
0.541098
0.541388
0.541215
0.5406
0.539549
0.538077
0.536196
0.533918
0.531245
0.528198
0.524783
0.521021
0.516917
0.512486
0.507734
0.502661
0.497294
0.49164
0.485692
0.47949
0.473014
0.466297
0.45934
0.45215
0.444739
0.437128
0.429309
0.421297
0.413112
0.404759
0.396247
0.387587
0.378794
0.369868
0.360828
0.351681
0.342434
0.333107
0.3237
0.314232
0.304712
0.295144
0.285543
0.275916
0.266275
0.256634
0.246993
0.237373
0.227778
0.218224
0.20871
0.199249
0.189855
0.180541
0.171307
0.162167
0.15312
0.144199
0.135386
0.126706
0.118166
0.10978
0.10154
0.0934612
0.0855688
0.0778502
0.0703255
0.0629948
0.055885
0.0489833
0.0423169
0.0358994
0.0297257
0.023823
0.0182065
0.0128895
0.00788811
0.00322128
0.00109118
0.00503522
0.00859826
0.011787
0.014607
0.017105
0.019302
0.0211937
0.0227599
0.024725
0.0279709
0.0324171
0.038202
0.045615
0.0550868
0.067083
0.0821773
0.101019
0.124493
0.153647
0.189597
0.233278
0.285574
0.347408
0.419495
0.502515
0.596672
0.702194
0.818769
0.946409
1.08693
1.24131
1.41153
1.59924
1.80945
2.04488
2.31113
2.61819
2.97051
3.3653
3.80325
4.27719
4.779
5.29204
5.7989
6.26391
6.6618
6.97118
7.18092
7.29336
7.27671
7.11914
6.83827
6.47965
6.1135
5.74695
5.49654
5.28977
5.08415
4.83801
4.50794
4.06322
3.49554
2.82583
2.12632
1.47943
0.936667
0.512682
0.195224
0.0286636
0.180988
0.282047
0.347766
0.391146
0.420264
0.439827
0.452743
0.460832
0.46534
0.467066
0.466433
0.463682
0.458585
0.451077
0.441531
0.430363
0.418012
0.404818
0.391219
0.377648
0.364515
0.352485
0.342064
0.333461
0.326865
0.322535
0.320811
0.322161
0.327138
0.336315
0.349842
0.366414
0.384294
0.400962
0.415932
0.42922
0.441012
0.451532
0.460941
0.469384
0.476949
0.483717
0.489751
0.4951
0.499795
0.503877
0.507371
0.510291
0.512681
0.514532
0.515888
0.516753
0.517149
0.517083
0.516574
0.515637
0.514284
0.512529
0.51039
0.507854
0.504955
0.501694
0.498091
0.494152
0.489885
0.485301
0.48042
0.475237
0.469778
0.464036
0.45803
0.451775
0.445276
0.438534
0.431568
0.424392
0.417012
0.409428
0.401661
0.393722
0.385613
0.377358
0.36894
0.360403
0.351735
0.342948
0.334057
0.325073
0.315998
0.30685
0.297636
0.288363
0.279051
0.269692
0.260321
0.250923
0.241518
0.23212
0.222728
0.213363
0.204024
0.194738
0.18549
0.176296
0.16718
0.158143
0.149191
0.140331
0.131583
0.122939
0.114414
0.106027
0.0977782
0.0896735
0.0817265
0.0739372
0.0663254
0.0588976
0.0516608
0.0446214
0.0377933
0.0311764
0.0247914
0.0186521
0.012753
0.00713455
0.00178546
0.00325791
0.00799146
0.0123927
0.0164431
0.0201304
0.0234436
0.0263893
0.0289747
0.0312389
0.0331935
0.0348109
0.0360625
0.0377642
0.0409193
0.0454192
0.0513533
0.0589873
0.0687319
0.0810378
0.0964405
0.115608
0.139393
0.168802
0.20489
0.248506
0.30049
0.361643
0.432618
0.514011
0.605925
0.708568
0.821631
0.945257
1.08119
1.23037
1.39471
1.57586
1.77854
2.0054
2.2615
2.55619
2.89219
3.26653
3.67889
4.12128
4.58538
5.05477
5.51301
5.92864
6.28453
6.56926
6.78209
6.92544
6.96165
6.87026
6.65877
6.36208
6.0422
5.68958
5.44868
5.24514
5.04513
4.81226
4.50623
4.09577
3.56912
2.93751
2.26123
1.61984
1.06885
0.630312
0.295747
0.0547326
0.111834
0.224247
0.298837
0.349004
0.383415
0.40721
0.423539
0.434457
0.441294
0.444962
0.445983
0.444665
0.440882
0.434581
0.426132
0.415945
0.404478
0.392091
0.379232
0.36633
0.353809
0.342283
0.332281
0.324042
0.317781
0.313745
0.312268
0.313776
0.318779
0.327716
0.340572
0.355878
0.372357
0.387844
0.401799
0.414216
0.425219
0.434998
0.443717
0.451488
0.458424
0.464593
0.470048
0.474831
0.478993
0.482556
0.485553
0.488002
0.489935
0.491356
0.492295
0.492765
0.492784
0.492362
0.49151
0.490254
0.488603
0.486568
0.484155
0.48137
0.478241
0.474768
0.470972
0.466851
0.462425
0.457695
0.452679
0.447391
0.441831
0.436012
0.429946
0.423641
0.417103
0.410351
0.403379
0.396213
0.388859
0.381317
0.373607
0.365736
0.357709
0.34954
0.341234
0.332813
0.324274
0.315626
0.306887
0.298064
0.289164
0.280205
0.271181
0.262112
0.253004
0.243863
0.23471
0.22555
0.216384
0.20723
0.198102
0.188987
0.179917
0.170886
0.161913
0.153004
0.144167
0.135407
0.126737
0.118164
0.109701
0.101348
0.0931245
0.0850234
0.0770647
0.0692545
0.0615994
0.0541125
0.0467938
0.03965
0.0327068
0.0259583
0.0194113
0.0130854
0.00698792
0.00112611
0.00447919
0.0098268
0.0148892
0.0196624
0.0241223
0.0282522
0.0320364
0.0354634
0.0385231
0.0412219
0.0435682
0.0455945
0.047303
0.0486507
0.0496052
0.0510614
0.0541294
0.0586795
0.0647592
0.0726108
0.0826243
0.0952209
0.110922
0.130401
0.154475
0.184104
0.220284
0.263785
0.315378
0.375788
0.445557
0.525225
0.614817
0.714508
0.82401
0.943556
1.07486
1.21876
1.37717
1.55169
1.74666
1.96475
2.21074
2.49251
2.81217
3.16581
3.55261
3.964
4.39133
4.81845
5.2306
5.60035
5.91804
6.18068
6.39602
6.56561
6.6481
6.61664
6.46953
6.23221
5.95822
5.62153
5.39327
5.19523
5.00216
4.78297
4.5
4.12207
3.63525
3.04215
2.39138
1.7586
1.20192
0.749927
0.399739
0.14133
0.0398872
0.164069
0.24791
0.305195
0.345168
0.373385
0.393307
0.407179
0.416471
0.422175
0.424918
0.425105
0.42269
0.417634
0.410303
0.401131
0.390565
0.379013
0.366905
0.354683
0.342775
0.331771
0.322199
0.314329
0.308392
0.304641
0.303396
0.30505
0.310045
0.31871
0.33087
0.344951
0.360082
0.374398
0.387347
0.398879
0.409074
0.418111
0.42612
0.433234
0.439524
0.445082
0.449952
0.454174
0.457789
0.460832
0.463334
0.465309
0.466774
0.467767
0.468291
0.468358
0.467995
0.467215
0.466032
0.464457
0.462499
0.460181
0.457504
0.454467
0.45111
0.447421
0.443419
0.439123
0.434534
0.429663
0.424524
0.419124
0.413468
0.40757
0.401442
0.395085
0.388517
0.381745
0.374782
0.367627
0.360295
0.352796
0.345145
0.33734
0.329402