/*--------------------------------*- C++ -*----------------------------------*\
| =========                 |                                                 |
| \\      /  F ield         | OpenFOAM: The Open Source CFD Toolbox           |
|  \\    /   O peration     | Version:  v2006                                 |
|   \\  /    A nd           | Website:  www.openfoam.com                      |
|    \\/     M anipulation  |                                                 |
\*---------------------------------------------------------------------------*/
FoamFile
{
    version     2.0;
    format      ascii;
    class       surfaceScalarField;
    location    "10";
    object      phi;
}
// * * * * * * * * * * * * * * * * * * * * * * * * * * * * * * * * * * * * * //

dimensions      [0 3 -1 0 0 0 0];
oriented        oriented;


internalField   nonuniform List<scalar> 
79600
(
2.53938e-06
7.05279e-08
2.54156e-06
1.56126e-09
2.49512e-06
4.7512e-08
2.32904e-06
1.82665e-07
1.99494e-06
3.60044e-07
1.50453e-06
5.25375e-07
9.39672e-07
5.90866e-07
4.47886e-07
4.98085e-07
1.16454e-07
3.06995e-07
-8.22547e-08
1.6944e-07
-1.96672e-07
7.82549e-08
-2.59298e-07
3.03144e-08
-2.92984e-07
2.46274e-09
-3.09707e-07
-1.02175e-08
-3.17736e-07
-1.64141e-08
-3.21655e-07
-1.71455e-08
-3.25135e-07
-1.51968e-08
-3.29361e-07
-1.18343e-08
-3.33406e-07
-1.045e-08
-3.36685e-07
-9.82545e-09
-3.39611e-07
-8.8488e-09
-3.42224e-07
-8.30086e-09
-3.44702e-07
-7.46379e-09
-3.47024e-07
-7.00861e-09
-3.48956e-07
-6.80182e-09
-3.50044e-07
-7.24825e-09
-3.49904e-07
-8.23767e-09
-3.49189e-07
-8.49812e-09
-3.48723e-07
-7.81482e-09
-3.48672e-07
-7.08865e-09
-3.4896e-07
-6.35496e-09
-3.4955e-07
-5.72105e-09
-3.50482e-07
-4.94562e-09
-3.51804e-07
-4.12914e-09
-3.53928e-07
-2.82596e-09
-3.57507e-07
-7.25e-10
-3.6224e-07
1.06018e-09
-3.67374e-07
1.91946e-09
-3.72596e-07
2.64761e-09
-3.7806e-07
3.29926e-09
-3.83754e-07
4.3545e-09
-3.90451e-07
5.58082e-09
-3.98126e-07
7.98056e-09
-4.09126e-07
1.0787e-08
-4.24033e-07
1.80179e-08
-4.5447e-07
3.06446e-08
-5.03984e-07
5.93379e-08
-5.45676e-07
4.37468e-08
-5.75265e-07
3.51082e-08
-6.01322e-07
2.88025e-08
-6.23833e-07
2.64435e-08
-6.44646e-07
2.36769e-08
-6.63535e-07
2.21403e-08
-6.81151e-07
2.04034e-08
-6.97416e-07
1.91393e-08
-7.12595e-07
1.78185e-08
-7.26682e-07
1.6699e-08
-7.39794e-07
1.55793e-08
-7.5195e-07
1.45551e-08
-7.63211e-07
1.35481e-08
-7.73599e-07
1.2593e-08
-7.83151e-07
1.16587e-08
-7.91888e-07
1.07572e-08
-7.99837e-07
9.87598e-09
-8.07017e-07
9.01892e-09
-8.1345e-07
8.18055e-09
-8.19153e-07
7.36211e-09
-8.24142e-07
6.56105e-09
-8.28436e-07
5.77752e-09
-8.32051e-07
5.01026e-09
-8.35002e-07
4.25915e-09
-8.37305e-07
3.52349e-09
-8.38972e-07
2.80318e-09
-8.40023e-07
2.09805e-09
-8.40469e-07
1.40868e-09
-8.40323e-07
7.33092e-10
-8.396e-07
6.9412e-11
-8.38309e-07
-5.81905e-10
-8.36466e-07
-1.22027e-09
-8.3408e-07
-1.84558e-09
-8.31164e-07
-2.45754e-09
-8.27733e-07
-3.05628e-09
-8.23796e-07
-3.64208e-09
-8.19369e-07
-4.21376e-09
-8.14463e-07
-4.77238e-09
-8.0909e-07
-5.31755e-09
-8.03265e-07
-5.848e-09
-7.97002e-07
-6.36441e-09
-7.9031e-07
-6.86725e-09
-7.83207e-07
-7.35531e-09
-7.75706e-07
-7.82743e-09
-7.67816e-07
-8.28609e-09
-7.59555e-07
-8.72933e-09
-7.5094e-07
-9.15571e-09
-7.41979e-07
-9.56809e-09
-7.3269e-07
-9.96425e-09
-7.23088e-07
-1.03429e-08
-7.13188e-07
-1.0706e-08
-7.03003e-07
-1.10537e-08
-6.92549e-07
-1.13828e-08
-6.8184e-07
-1.16961e-08
-6.70893e-07
-1.19934e-08
-6.59724e-07
-1.22715e-08
-6.48348e-07
-1.25338e-08
-6.36779e-07
-1.27796e-08
-6.25033e-07
-1.30062e-08
-6.13127e-07
-1.32153e-08
-6.01075e-07
-1.34095e-08
-5.88894e-07
-1.35835e-08
-5.76597e-07
-1.37406e-08
-5.64202e-07
-1.38824e-08
-5.51725e-07
-1.40049e-08
-5.39181e-07
-1.41099e-08
-5.26584e-07
-1.41991e-08
-5.13948e-07
-1.42718e-08
-5.01291e-07
-1.43249e-08
-4.88627e-07
-1.43629e-08
-4.75971e-07
-1.43852e-08
-4.63336e-07
-1.43888e-08
-4.50738e-07
-1.43776e-08
-4.38191e-07
-1.43518e-08
-4.25708e-07
-1.43073e-08
-4.13304e-07
-1.4249e-08
-4.00992e-07
-1.41767e-08
-3.88785e-07
-1.40865e-08
-3.76696e-07
-1.39839e-08
-3.64738e-07
-1.38671e-08
-3.52925e-07
-1.37345e-08
-3.41266e-07
-1.35885e-08
-3.29776e-07
-1.34312e-08
-3.18465e-07
-1.32592e-08
-3.07344e-07
-1.30739e-08
-2.96424e-07
-1.28782e-08
-2.85717e-07
-1.26683e-08
-2.75233e-07
-1.24473e-08
-2.64981e-07
-1.22159e-08
-2.54972e-07
-1.19717e-08
-2.4522e-07
-1.17134e-08
-2.35734e-07
-1.14444e-08
-2.26525e-07
-1.11599e-08
-2.17613e-07
-1.08605e-08
-2.09009e-07
-1.05367e-08
-2.00742e-07
-1.02007e-08
-1.92827e-07
-9.81666e-09
-1.85311e-07
-9.4291e-09
-1.78205e-07
-8.95646e-09
-1.71582e-07
-8.51362e-09
-1.65431e-07
-7.92004e-09
-1.59819e-07
-7.49254e-09
-1.54655e-07
-6.82308e-09
-1.49805e-07
-6.76533e-09
-1.44862e-07
-6.56073e-09
-1.378e-07
-9.05998e-09
-1.29316e-07
-1.07034e-08
-1.2293e-07
-7.71469e-09
-1.18466e-07
-4.81199e-09
-1.13527e-07
-5.00874e-09
-1.07534e-07
-5.34792e-09
-1.00223e-07
-6.28423e-09
-9.12886e-08
-7.45365e-09
-8.05847e-08
-8.79753e-09
-6.78311e-08
-1.05778e-08
-5.28446e-08
-1.24606e-08
-3.53042e-08
-1.48899e-08
-1.48336e-08
-1.76473e-08
9.35435e-09
-2.14286e-08
3.78771e-08
-2.61195e-08
7.12629e-08
-3.13435e-08
1.10261e-07
-3.78558e-08
1.55313e-07
-4.48615e-08
2.07308e-07
-5.31439e-08
2.66325e-07
-6.21869e-08
3.32828e-07
-7.11324e-08
4.0594e-07
-8.11976e-08
4.83223e-07
-8.66848e-08
5.64154e-07
-9.43168e-08
6.49321e-07
-1.00369e-07
7.38711e-07
-1.09507e-07
8.31009e-07
-1.14998e-07
9.28067e-07
-1.24975e-07
1.03233e-06
-1.36795e-07
1.1418e-06
-1.48971e-07
1.26509e-06
-1.67408e-07
1.41658e-06
-2.08623e-07
1.60307e-06
-2.52594e-07
1.83204e-06
-3.12302e-07
2.11343e-06
-3.78776e-07
2.4588e-06
-4.6475e-07
2.87801e-06
-5.58372e-07
3.39471e-06
-6.7788e-07
4.01158e-06
-8.05689e-07
4.69431e-06
-8.73477e-07
5.29883e-06
-7.99191e-07
5.52515e-06
-3.39171e-07
5.25455e-06
2.44474e-07
4.66968e-06
6.19881e-07
3.98781e-06
7.36581e-07
3.36913e-06
6.75938e-07
2.89168e-06
5.15643e-07
3.11193e-07
7.79839e-06
3.09196e-07
7.76321e-06
4.16925e-08
7.59697e-06
2.06263e-07
7.09348e-06
6.77717e-07
6.11392e-06
1.31933e-06
4.68558e-06
1.93472e-06
3.0286e-06
2.23557e-06
1.55292e-06
1.98919e-06
5.21856e-07
1.36096e-06
-1.1886e-07
8.46766e-07
-4.99963e-07
4.93235e-07
-7.16546e-07
2.81179e-07
-8.37984e-07
1.53375e-07
-9.02619e-07
8.14177e-08
-9.36779e-07
4.08339e-08
-9.55565e-07
2.21575e-08
-9.70621e-07
1.73557e-08
-9.86339e-07
1.95122e-08
-1.00085e-06
1.79589e-08
-1.01269e-06
1.44139e-08
-1.02305e-06
1.2911e-08
-1.03218e-06
1.10883e-08
-1.04064e-06
1.05523e-08
-1.04844e-06
9.62852e-09
-1.055e-06
8.07724e-09
-1.05908e-06
4.81352e-09
-1.05967e-06
-5.51878e-12
-1.05851e-06
-2.4087e-09
-1.05793e-06
-1.44051e-09
-1.05853e-06
6.34667e-11
-1.06017e-06
1.53973e-09
-1.06276e-06
2.71725e-09
-1.06645e-06
4.21997e-09
-1.07138e-06
5.85815e-09
-1.07869e-06
8.97479e-09
-1.09013e-06
1.46769e-08
-1.10497e-06
1.94114e-08
-1.12116e-06
2.1008e-08
-1.13778e-06
2.17885e-08
-1.15521e-06
2.25275e-08
-1.17352e-06
2.4277e-08
-1.1949e-06
2.73627e-08
-1.21963e-06
3.36494e-08
-1.25441e-06
4.3844e-08
-1.30178e-06
6.62807e-08
-1.39198e-06
1.14128e-07
-1.53297e-06
2.01707e-07
-1.6541e-06
1.57088e-07
-1.74309e-06
1.23012e-07
-1.82138e-06
1.02894e-07
-1.88924e-06
9.23521e-08
-1.95179e-06
8.31377e-08
-2.00859e-06
7.67408e-08
-2.06146e-06
7.06877e-08
-2.11027e-06
6.57411e-08
-2.15576e-06
6.10005e-08
-2.19796e-06
5.67673e-08
-2.23719e-06
5.26952e-08
-2.27354e-06
4.88916e-08
-2.30718e-06
4.52174e-08
-2.33817e-06
4.17074e-08
-2.36664e-06
3.83031e-08
-2.39265e-06
3.50138e-08
-2.41627e-06
3.18138e-08
-2.43757e-06
2.87041e-08
-2.45661e-06
2.56727e-08
-2.47344e-06
2.27185e-08
-2.48813e-06
1.98349e-08
-2.50071e-06
1.70205e-08
-2.51125e-06
1.42715e-08
-2.51978e-06
1.15864e-08
-2.52636e-06
8.96304e-09
-2.53102e-06
6.40032e-09
-2.53382e-06
3.89791e-09
-2.5348e-06
1.4569e-09
-2.534e-06
-9.30173e-10
-2.53146e-06
-3.27009e-09
-2.5272e-06
-5.5611e-09
-2.52128e-06
-7.80149e-09
-2.51373e-06
-9.99097e-09
-2.50458e-06
-1.21289e-08
-2.49387e-06
-1.42156e-08
-2.48165e-06
-1.62529e-08
-2.46795e-06
-1.82357e-08
-2.45281e-06
-2.01689e-08
-2.43627e-06
-2.20509e-08
-2.41837e-06
-2.3877e-08
-2.39914e-06
-2.56503e-08
-2.37863e-06
-2.73727e-08
-2.35689e-06
-2.90395e-08
-2.33394e-06
-3.06467e-08
-2.30983e-06
-3.22038e-08
-2.28461e-06
-3.37038e-08
-2.25831e-06
-3.51409e-08
-2.23099e-06
-3.65266e-08
-2.20268e-06
-3.78523e-08
-2.17342e-06
-3.91139e-08
-2.14327e-06
-4.0318e-08
-2.11227e-06
-4.14661e-08
-2.08046e-06
-4.25459e-08
-2.04789e-06
-4.35679e-08
-2.01461e-06
-4.45316e-08
-1.98066e-06
-4.54252e-08
-1.94608e-06
-4.62616e-08
-1.91093e-06
-4.7038e-08
-1.87526e-06
-4.77448e-08
-1.8391e-06
-4.8388e-08
-1.80251e-06
-4.89772e-08
-1.76553e-06
-4.94934e-08
-1.72822e-06
-4.99486e-08
-1.69061e-06
-5.03483e-08
-1.65275e-06
-5.06785e-08
-1.6147e-06
-5.09453e-08
-1.57649e-06
-5.11554e-08
-1.53817e-06
-5.13056e-08
-1.49979e-06
-5.13861e-08
-1.4614e-06
-5.1411e-08
-1.42303e-06
-5.13803e-08
-1.38473e-06
-5.12816e-08
-1.34655e-06
-5.11301e-08
-1.30853e-06
-5.09255e-08
-1.2707e-06
-5.06542e-08
-1.23312e-06
-5.03333e-08
-1.19582e-06
-4.99612e-08
-1.15884e-06
-4.95254e-08
-1.12223e-06
-4.90442e-08
-1.08601e-06
-4.85123e-08
-1.05023e-06
-4.79233e-08
-1.01494e-06
-4.72862e-08
-9.80145e-07
-4.66078e-08
-9.459e-07
-4.58769e-08
-9.12239e-07
-4.50981e-08
-8.79189e-07
-4.42808e-08
-8.46788e-07
-4.34132e-08
-8.15069e-07
-4.25047e-08
-7.84056e-07
-4.15585e-08
-7.53789e-07
-4.0565e-08
-7.243e-07
-3.95221e-08
-6.95626e-07
-3.84365e-08
-6.67799e-07
-3.72993e-08
-6.40879e-07
-3.60996e-08
-6.14901e-07
-3.48237e-08
-5.89949e-07
-3.34803e-08
-5.66077e-07
-3.19972e-08
-5.43412e-07
-3.0445e-08
-5.22003e-07
-2.86685e-08
-5.0205e-07
-2.68705e-08
-4.83531e-07
-2.47243e-08
-4.66624e-07
-2.28894e-08
-4.51071e-07
-2.06119e-08
-4.36465e-07
-1.99537e-08
-4.21681e-07
-1.94869e-08
-4.01719e-07
-2.72599e-08
-3.78322e-07
-3.25527e-08
-3.59902e-07
-2.5037e-08
-3.45934e-07
-1.81167e-08
-3.30351e-07
-2.08875e-08
-3.11447e-07
-2.47873e-08
-2.88383e-07
-3.05245e-08
-2.60252e-07
-3.71668e-08
-2.26572e-07
-4.44512e-08
-1.86514e-07
-5.30625e-08
-1.39484e-07
-6.21461e-08
-8.44812e-08
-7.29126e-08
-2.02748e-08
-8.49646e-08
5.54189e-08
-1.0033e-07
1.44379e-07
-1.18203e-07
2.48202e-07
-1.37829e-07
3.69018e-07
-1.60951e-07
5.08189e-07
-1.85327e-07
6.68136e-07
-2.13292e-07
8.49086e-07
-2.42061e-07
1.05211e-06
-2.70766e-07
1.27434e-06
-2.98904e-07
1.50903e-06
-3.13094e-07
1.7548e-06
-3.30836e-07
2.01323e-06
-3.45108e-07
2.28412e-06
-3.65163e-07
2.56425e-06
-3.74587e-07
2.85916e-06
-3.96823e-07
3.17548e-06
-4.24291e-07
3.5094e-06
-4.49419e-07
3.88692e-06
-5.03104e-07
4.34872e-06
-6.23537e-07
4.91505e-06
-7.57107e-07
5.60806e-06
-9.34613e-07
6.4567e-06
-1.13803e-06
7.49343e-06
-1.39831e-06
8.74691e-06
-1.68646e-06
1.02783e-05
-2.06521e-06
1.20843e-05
-2.45216e-06
1.40485e-05
-2.65913e-06
1.57525e-05
-2.35438e-06
1.63873e-05
-8.51992e-07
1.56446e-05
1.02502e-06
1.40114e-05
2.23931e-06
1.20761e-05
2.63139e-06
1.02913e-05
2.42494e-06
8.89316e-06
1.87784e-06
1.14207e-06
1.33287e-05
7.67994e-07
1.32188e-05
1.58078e-07
1.29087e-05
5.10303e-07
1.2061e-05
1.52312e-06
1.04494e-05
2.91893e-06
8.10819e-06
4.264e-06
5.37285e-06
4.95487e-06
2.89082e-06
4.46634e-06
1.10792e-06
3.13283e-06
-2.96792e-08
1.98536e-06
-7.21986e-07
1.18407e-06
-1.12513e-06
6.87451e-07
-1.35684e-06
3.867e-07
-1.48477e-06
2.12375e-07
-1.55535e-06
1.13542e-07
-1.59583e-06
6.51054e-08
-1.62676e-06
5.00807e-08
-1.65676e-06
5.14518e-08
-1.6839e-06
4.67382e-08
-1.70613e-06
3.80285e-08
-1.72535e-06
3.35723e-08
-1.74218e-06
2.90669e-08
-1.75757e-06
2.71505e-08
-1.77166e-06
2.4763e-08
-1.78357e-06
2.1033e-08
-1.79146e-06
1.37417e-08
-1.79368e-06
3.19873e-09
-1.79287e-06
-2.27812e-09
-1.7928e-06
-5.36643e-10
-1.79458e-06
2.72715e-09
-1.7981e-06
5.96613e-09
-1.80324e-06
8.67948e-09
-1.81025e-06
1.20451e-08
-1.8194e-06
1.57872e-08
-1.83244e-06
2.2664e-08
-1.85216e-06
3.49901e-08
-1.87752e-06
4.53547e-08
-1.90535e-06
4.92186e-08
-1.93412e-06
5.10234e-08
-1.96442e-06
5.29774e-08
-1.99645e-06
5.67828e-08
-2.03376e-06
6.43177e-08
-2.07725e-06
7.79374e-08
-2.13772e-06
1.02688e-07
-2.22036e-06
1.50953e-07
-2.37072e-06
2.5874e-07
-2.59899e-06
4.34482e-07
-2.79769e-06
3.49823e-07
-2.94702e-06
2.73728e-07
-3.07839e-06
2.31838e-07
-3.19254e-06
2.06569e-07
-3.29751e-06
1.86783e-07
-3.3929e-06
1.71745e-07
-3.48155e-06
1.58455e-07
-3.56339e-06
1.47067e-07
-3.63958e-06
1.36515e-07
-3.71021e-06
1.26886e-07
-3.77584e-06
1.1776e-07
-3.83659e-06
1.09158e-07
-3.89276e-06
1.00902e-07
-3.94447e-06
9.29849e-08
-3.99191e-06
8.5328e-08
-4.03521e-06
7.79195e-08
-4.0745e-06
7.0721e-08
-4.10985e-06
6.37226e-08
-4.14139e-06
5.69043e-08
-4.16921e-06
5.02592e-08
-4.19341e-06
4.37754e-08
-4.21408e-06
3.74475e-08
-4.2313e-06
3.12682e-08
-4.24514e-06
2.52334e-08
-4.2557e-06
1.93385e-08
-4.26302e-06
1.3581e-08
-4.2672e-06
7.96013e-09
-4.26834e-06
2.47747e-09
-4.26647e-06
-2.88417e-09
-4.26166e-06
-8.13912e-09
-4.25397e-06
-1.32829e-08
-4.24349e-06
-1.83123e-08
-4.23025e-06
-2.32264e-08
-4.21432e-06
-2.80245e-08
-4.1958e-06
-3.27066e-08
-4.17472e-06
-3.72774e-08
-4.15114e-06
-4.1725e-08
-4.12515e-06
-4.60606e-08
-4.09682e-06
-5.02811e-08
-4.06619e-06
-5.43756e-08
-4.03334e-06
-5.83508e-08
-3.99833e-06
-6.22113e-08
-3.96123e-06
-6.59467e-08
-3.92215e-06
-6.9548e-08
-3.8811e-06
-7.30362e-08
-3.83817e-06
-7.63961e-08
-3.79346e-06
-7.96144e-08
-3.74702e-06
-8.27169e-08
-3.69891e-06
-8.56847e-08
-3.64924e-06
-8.8508e-08
-3.59806e-06
-9.12022e-08
-3.54543e-06
-9.37703e-08
-3.49148e-06
-9.61849e-08
-3.43624e-06
-9.84696e-08
-3.3798e-06
-1.00623e-07
-3.32226e-06
-1.02619e-07
-3.26367e-06
-1.04487e-07
-3.20411e-06
-1.06219e-07
-3.14368e-06
-1.07796e-07
-3.08245e-06
-1.09229e-07
-3.02049e-06
-1.10541e-07
-2.95789e-06
-1.11689e-07
-2.89472e-06
-1.12699e-07
-2.83106e-06
-1.13586e-07
-2.767e-06
-1.14315e-07
-2.70261e-06
-1.14903e-07
-2.63797e-06
-1.15363e-07
-2.57315e-06
-1.15688e-07
-2.50824e-06
-1.15857e-07
-2.4433e-06
-1.15901e-07
-2.37842e-06
-1.1582e-07
-2.31366e-06
-1.15586e-07
-2.24911e-06
-1.15233e-07
-2.18482e-06
-1.14761e-07
-2.12088e-06
-1.14138e-07
-2.05736e-06
-1.13404e-07
-1.99431e-06
-1.12555e-07
-1.93182e-06
-1.11563e-07
-1.86995e-06
-1.10468e-07
-1.80875e-06
-1.09259e-07
-1.7483e-06
-1.07921e-07
-1.68867e-06
-1.06475e-07
-1.6299e-06
-1.04936e-07
-1.57206e-06
-1.03278e-07
-1.51521e-06
-1.01512e-07
-1.4594e-06
-9.96592e-08
-1.40469e-06
-9.76925e-08
-1.35115e-06
-9.5633e-08
-1.2988e-06
-9.34881e-08
-1.24772e-06
-9.12349e-08
-1.19796e-06
-8.88712e-08
-1.14959e-06
-8.64075e-08
-1.10267e-06
-8.38311e-08
-1.05728e-06
-8.1105e-08
-1.0135e-06
-7.82193e-08
-9.71465e-07
-7.51604e-08
-9.31266e-07
-7.18202e-08
-8.93114e-07
-6.82736e-08
-8.57096e-07
-6.43073e-08
-8.23533e-07
-6.01711e-08
-7.92404e-07
-5.54531e-08
-7.63977e-07
-5.11514e-08
-7.37834e-07
-4.62918e-08
-7.13308e-07
-4.44258e-08
-6.88619e-07
-4.36413e-08
-6.56535e-07
-5.90119e-08
-6.19534e-07
-6.93602e-08
-5.89401e-07
-5.49563e-08
-5.653e-07
-4.18286e-08
-5.3826e-07
-4.80499e-08
-5.05458e-07
-5.74322e-08
-4.65427e-07
-7.05929e-08
-4.16654e-07
-8.59385e-08
-3.58265e-07
-1.02802e-07
-2.88864e-07
-1.22498e-07
-2.07387e-07
-1.43516e-07
-1.12089e-07
-1.68172e-07
-7.63387e-10
-1.96073e-07
1.3036e-07
-2.31169e-07
2.84195e-07
-2.71678e-07
4.63432e-07
-3.16364e-07
6.71518e-07
-3.68305e-07
9.10762e-07
-4.23413e-07
1.18493e-06
-4.86001e-07
1.49436e-06
-5.49939e-07
1.84041e-06
-6.14165e-07
2.21798e-06
-6.74657e-07
2.61641e-06
-7.07614e-07
3.03367e-06
-7.45656e-07
3.47223e-06
-7.7882e-07
3.93163e-06
-8.21155e-07
4.40732e-06
-8.44354e-07
4.90868e-06
-8.93258e-07
5.44622e-06
-9.55113e-07
6.01616e-06
-1.01297e-06
6.6627e-06
-1.13946e-06
7.45116e-06
-1.40457e-06
8.41493e-06
-1.70662e-06
9.5907e-06
-2.09838e-06
1.10255e-05
-2.55367e-06
1.27707e-05
-3.12538e-06
1.4872e-05
-3.76302e-06
1.74192e-05
-4.58411e-06
2.03904e-05
-5.39763e-06
2.35736e-05
-5.80352e-06
2.62868e-05
-5.05583e-06
2.72875e-05
-1.82709e-06
2.6121e-05
2.18917e-06
2.35306e-05
4.81609e-06
2.04225e-05
5.71556e-06
1.75179e-05
5.31314e-06
1.52144e-05
4.15917e-06
2.55494e-06
1.91384e-05
1.4827e-06
1.89169e-05
3.86031e-07
1.84389e-05
9.83323e-07
1.72404e-05
2.7248e-06
1.50106e-05
5.14698e-06
1.17823e-05
7.49475e-06
7.9848e-06
8.75053e-06
4.47786e-06
7.97804e-06
1.89313e-06
5.70934e-06
2.02858e-07
3.67552e-06
-8.47857e-07
2.22995e-06
-1.47321e-06
1.3119e-06
-1.84039e-06
7.51244e-07
-2.04911e-06
4.20098e-07
-2.16803e-06
2.30852e-07
-2.23824e-06
1.34442e-07
-2.29027e-06
1.00933e-07
-2.33801e-06
9.8509e-08
-2.38042e-06
8.84733e-08
-2.41519e-06
7.20451e-08
-2.44501e-06
6.2923e-08
-2.47096e-06
5.43865e-08
-2.49442e-06
5.02178e-08
-2.51576e-06
4.55953e-08
-2.53391e-06
3.87281e-08
-2.54651e-06
2.59319e-08
-2.55134e-06
7.62809e-09
-2.5518e-06
-2.21445e-09
-2.55296e-06
3.02948e-10
-2.55656e-06
5.95615e-09
-2.56256e-06
1.168e-08
-2.57088e-06
1.66617e-08
-2.58185e-06
2.27963e-08
-2.59591e-06
2.95808e-08
-2.61532e-06
4.18324e-08
-2.64381e-06
6.3259e-08
-2.68018e-06
8.16387e-08
-2.7203e-06
8.91196e-08
-2.76204e-06
9.27206e-08
-2.80617e-06
9.68696e-08
-2.85307e-06
1.03876e-07
-2.90764e-06
1.18362e-07
-2.9716e-06
1.42741e-07
-3.05966e-06
1.89263e-07
-3.18006e-06
2.73964e-07
-3.39084e-06
4.64728e-07
-3.7026e-06
7.52652e-07
-3.97702e-06
6.1972e-07
-4.18737e-06
4.86751e-07
-4.3725e-06
4.15494e-07
-4.53376e-06
3.68861e-07
-4.68177e-06
3.34322e-07
-4.81632e-06
3.06745e-07
-4.94123e-06
2.83229e-07
-5.05651e-06
2.62558e-07
-5.16372e-06
2.43741e-07
-5.26305e-06
2.2637e-07
-5.35528e-06
2.10042e-07
-5.44059e-06
1.94572e-07
-5.5194e-06
1.79778e-07
-5.5919e-06
1.65564e-07
-5.65834e-06
1.51838e-07
-5.71888e-06
1.38547e-07
-5.77372e-06
1.25642e-07
-5.82302e-06
1.13094e-07
-5.86693e-06
1.00872e-07
-5.90557e-06
8.8961e-08
-5.93907e-06
7.73416e-08
-5.96756e-06
6.60021e-08
-5.99116e-06
5.49307e-08
-6.00998e-06
4.41193e-08
-6.02414e-06
3.35601e-08
-6.03376e-06
2.3248e-08
-6.03892e-06
1.31825e-08
-6.03976e-06
3.36425e-09
-6.03636e-06
-6.23811e-09
-6.02879e-06
-1.56484e-08
-6.01717e-06
-2.48575e-08
-6.00159e-06
-3.3861e-08
-5.98212e-06
-4.26572e-08
-5.95887e-06
-5.12449e-08
-5.93192e-06
-5.9624e-08
-5.90135e-06
-6.78035e-08
-5.86728e-06
-7.57615e-08
-5.82981e-06
-8.35183e-08
-5.789e-06
-9.10688e-08
-5.74495e-06
-9.8393e-08
-5.69778e-06
-1.05503e-07
-5.64758e-06
-1.12407e-07
-5.59443e-06
-1.19087e-07
-5.53844e-06
-1.25526e-07
-5.47971e-06
-1.31762e-07
-5.41832e-06
-1.37769e-07
-5.3544e-06
-1.43521e-07
-5.28806e-06
-1.49066e-07
-5.21939e-06
-1.5437e-07
-5.14847e-06
-1.59415e-07
-5.07544e-06
-1.64228e-07
-5.00041e-06
-1.68815e-07
-4.92349e-06
-1.73127e-07
-4.84476e-06
-1.77207e-07
-4.76436e-06
-1.81052e-07
-4.68238e-06
-1.84614e-07
-4.59892e-06
-1.87946e-07
-4.51411e-06
-1.91038e-07
-4.42809e-06
-1.93849e-07
-4.34095e-06
-1.96403e-07
-4.25279e-06
-1.98741e-07
-4.16371e-06
-2.00786e-07
-4.07385e-06
-2.02583e-07
-3.98332e-06
-2.04158e-07
-3.89222e-06
-2.05454e-07
-3.80066e-06
-2.06494e-07
-3.70876e-06
-2.07306e-07
-3.61662e-06
-2.07875e-07
-3.52435e-06
-2.08167e-07
-3.43206e-06
-2.08233e-07
-3.33985e-06
-2.08076e-07
-3.24784e-06
-2.07644e-07
-3.15612e-06
-2.07e-07
-3.06479e-06
-2.06142e-07
-2.97396e-06
-2.05014e-07
-2.88374e-06
-2.03687e-07
-2.79419e-06
-2.02152e-07
-2.70545e-06
-2.00361e-07
-2.61759e-06
-1.98386e-07
-2.5307e-06
-1.96207e-07
-2.44488e-06
-1.93797e-07
-2.36023e-06
-1.91191e-07
-2.27681e-06
-1.88418e-07
-2.19472e-06
-1.85433e-07
-2.11404e-06
-1.82252e-07
-2.03485e-06
-1.78915e-07
-1.95724e-06
-1.75372e-07
-1.88127e-06
-1.71662e-07
-1.80703e-06
-1.67799e-07
-1.7346e-06
-1.63738e-07
-1.66406e-06
-1.59479e-07
-1.5955e-06
-1.55037e-07
-1.52901e-06
-1.50395e-07
-1.46472e-06
-1.45475e-07
-1.40272e-06
-1.4028e-07
-1.34321e-06
-1.34752e-07
-1.28634e-06
-1.28754e-07
-1.23238e-06
-1.22336e-07
-1.18147e-06
-1.15252e-07
-1.13403e-06
-1.07745e-07
-1.09007e-06
-9.94015e-08
-1.04992e-06
-9.1518e-08
-1.01301e-06
-8.30819e-08
-9.78453e-07
-7.92962e-08
-9.43876e-07
-7.80394e-08
-9.0045e-07
-1.02571e-07
-8.5109e-07
-1.18957e-07
-8.09581e-07
-9.66016e-08
-7.74764e-07
-7.63887e-08
-7.35436e-07
-8.75637e-08
-6.87688e-07
-1.05004e-07
-6.29396e-07
-1.28862e-07
-5.58422e-07
-1.56807e-07
-4.73456e-07
-1.87596e-07
-3.72516e-07
-2.23336e-07
-2.54006e-07
-2.61777e-07
-1.15373e-07
-3.06655e-07
4.66701e-08
-3.57827e-07
2.37365e-07
-4.21606e-07
4.60729e-07
-4.94849e-07
7.20558e-07
-5.75836e-07
1.02154e-06
-6.69152e-07
1.36695e-06
-7.68532e-07
1.76171e-06
-8.80549e-07
2.20617e-06
-9.94527e-07
2.7017e-06
-1.10921e-06
3.24079e-06
-1.21463e-06
3.8092e-06
-1.2753e-06
4.40449e-06
-1.34216e-06
5.02988e-06
-1.40366e-06
5.68462e-06
-1.47761e-06
6.36346e-06
-1.52291e-06
7.07971e-06
-1.61107e-06
7.84757e-06
-1.72371e-06
8.66504e-06
-1.83263e-06
9.59507e-06
-2.06926e-06
1.0726e-05
-2.54022e-06
1.21039e-05
-3.0848e-06
1.37797e-05
-3.77986e-06
1.58176e-05
-4.59337e-06
1.82857e-05
-5.60039e-06
2.12444e-05
-6.72655e-06
2.48029e-05
-8.14881e-06
2.89099e-05
-9.51801e-06
3.32472e-05
-1.01424e-05
3.68844e-05
-8.71813e-06
3.82166e-05
-3.15269e-06
3.66782e-05
3.72766e-06
3.32233e-05
8.27509e-06
2.90256e-05
9.9115e-06
2.50514e-05
9.29167e-06
2.18607e-05
7.34315e-06
4.55959e-06
2.52353e-05
2.485e-06
2.48659e-05
7.62091e-07
2.41963e-05
1.64781e-06
2.26403e-05
4.28435e-06
1.98058e-05
7.98041e-06
1.5716e-05
1.15882e-05
1.08741e-05
1.35923e-05
6.32734e-06
1.25322e-05
2.89362e-06
9.13716e-06
5.94736e-07
5.97643e-06
-8.63713e-07
3.68525e-06
-1.74964e-06
2.19833e-06
-2.28e-06
1.28013e-06
-2.58904e-06
7.2914e-07
-2.76978e-06
4.10841e-07
-2.87896e-06
2.43492e-07
-2.95819e-06
1.79509e-07
-3.02777e-06
1.67902e-07
-3.08853e-06
1.49005e-07
-3.13836e-06
1.21477e-07
-3.18077e-06
1.05204e-07
-3.21746e-06
9.07067e-08
-3.25034e-06
8.29806e-08
-3.28005e-06
7.50437e-08
-3.30543e-06
6.40133e-08
-3.32374e-06
4.40866e-08
-3.33224e-06
1.6026e-08
-3.33496e-06
2.8322e-10
-3.33819e-06
3.43767e-09
-3.34431e-06
1.19268e-08
-3.35349e-06
2.07447e-08
-3.36567e-06
2.86924e-08
-3.38132e-06
3.83319e-08
-3.40102e-06
4.91379e-08
-3.42749e-06
6.81696e-08
-3.46532e-06
1.00948e-07
-3.51326e-06
1.2956e-07
-3.56638e-06
1.42075e-07
-3.62195e-06
1.4833e-07
-3.68091e-06
1.55605e-07
-3.7439e-06
1.67119e-07
-3.81706e-06
1.90994e-07
-3.90321e-06
2.29809e-07
-4.02074e-06
3.05218e-07
-4.18115e-06
4.37102e-07
-4.45245e-06
7.31138e-07
-4.84423e-06
1.15101e-06
-5.19259e-06
9.63437e-07
-5.46433e-06
7.61323e-07
-5.70374e-06
6.53358e-07
-5.91279e-06
5.7899e-07
-6.1044e-06
5.2542e-07
-6.27865e-06
4.81432e-07
-6.4402e-06
4.44626e-07
-6.58925e-06
4.11815e-07
-6.72777e-06
3.82236e-07
-6.85603e-06
3.54759e-07
-6.97501e-06
3.29043e-07
-7.08497e-06
3.0462e-07
-7.18646e-06
2.81308e-07
-7.27973e-06
2.5889e-07
-7.36511e-06
2.37259e-07
-7.44282e-06
2.16309e-07
-7.51312e-06
1.95977e-07
-7.57618e-06
1.76204e-07
-7.6322e-06
1.56953e-07
-7.6814e-06
1.38191e-07
-7.72392e-06
1.19892e-07
-7.75991e-06
1.02036e-07
-7.78957e-06
8.46045e-08
-7.81301e-06
6.75847e-08
-7.83037e-06
5.09644e-08
-7.84184e-06
3.47355e-08
-7.84754e-06
1.88972e-08
-7.8476e-06
3.44781e-09
-7.84216e-06
-1.1663e-08
-7.83133e-06
-2.64694e-08
-7.81522e-06
-4.09561e-08
-7.79395e-06
-5.51172e-08
-7.76764e-06
-6.89507e-08
-7.73642e-06
-8.24548e-08
-7.70041e-06
-9.56291e-08
-7.65974e-06
-1.08489e-07
-7.6145e-06
-1.20998e-07
-7.56483e-06
-1.3319e-07
-7.51085e-06
-1.45056e-07
-7.45268e-06
-1.56565e-07
-7.39046e-06
-1.67736e-07
-7.3243e-06
-1.78582e-07
-7.25432e-06
-1.89075e-07
-7.18068e-06
-1.99189e-07
-7.10346e-06
-2.08981e-07
-7.02283e-06
-2.18413e-07
-6.93894e-06
-2.27444e-07
-6.85187e-06
-2.36147e-07
-6.76178e-06
-2.44471e-07
-6.66885e-06
-2.52387e-07
-6.57316e-06
-2.59939e-07
-6.47486e-06
-2.67134e-07
-6.37413e-06
-2.73898e-07
-6.27108e-06
-2.80293e-07
-6.16585e-06
-2.86321e-07
-6.05858e-06
-2.91902e-07
-5.94944e-06
-2.97122e-07
-5.83855e-06
-3.01962e-07
-5.72606e-06
-3.06363e-07
-5.61215e-06
-3.10359e-07
-5.49692e-06
-3.14012e-07
-5.38053e-06
-3.17207e-07
-5.26315e-06
-3.2001e-07
-5.14489e-06
-3.22465e-07
-5.02591e-06
-3.24479e-07
-4.90635e-06
-3.26092e-07
-4.78636e-06
-3.27347e-07
-4.66606e-06
-3.28217e-07
-4.54561e-06
-3.28652e-07
-4.42516e-06
-3.2873e-07
-4.30483e-06
-3.28459e-07
-4.18476e-06
-3.27755e-07
-4.06509e-06
-3.26716e-07
-3.94594e-06
-3.2534e-07
-3.82746e-06
-3.2354e-07
-3.70977e-06
-3.21426e-07
-3.593e-06
-3.18984e-07
-3.47727e-06
-3.1614e-07
-3.3627e-06
-3.13004e-07
-3.24941e-06
-3.09546e-07
-3.13753e-06
-3.05723e-07
-3.02718e-06
-3.01594e-07
-2.91845e-06
-2.97199e-07
-2.81146e-06
-2.92469e-07
-2.70633e-06
-2.8743e-07
-2.60315e-06
-2.82143e-07
-2.50204e-06
-2.76532e-07
-2.4031e-06
-2.70655e-07
-2.30641e-06
-2.64534e-07
-2.2121e-06
-2.581e-07
-2.12027e-06
-2.51352e-07
-2.03105e-06
-2.4431e-07
-1.94453e-06
-2.36953e-07
-1.86091e-06
-2.2915e-07
-1.78031e-06
-2.20922e-07
-1.70297e-06
-2.12151e-07
-1.62908e-06
-2.02668e-07
-1.55901e-06
-1.9248e-07
-1.49293e-06
-1.81323e-07
-1.43139e-06
-1.69396e-07
-1.37439e-06
-1.56349e-07
-1.32233e-06
-1.43755e-07
-1.27454e-06
-1.30718e-07
-1.22988e-06
-1.24237e-07
-1.1855e-06
-1.22191e-07
-1.13151e-06
-1.56691e-07
-1.07099e-06
-1.79636e-07
-1.01846e-06
-1.49293e-07
-9.72386e-07
-1.22187e-07
-9.19932e-07
-1.40234e-07
-8.56147e-07
-1.68644e-07
-7.7823e-07
-2.06822e-07
-6.83408e-07
-2.51604e-07
-5.69893e-07
-3.01038e-07
-4.35092e-07
-3.58167e-07
-2.76821e-07
-4.19943e-07
-9.16518e-08
-4.91848e-07
1.24871e-07
-5.7425e-07
3.79445e-07
-6.76134e-07
6.77159e-07
-7.92602e-07
1.02291e-06
-9.21465e-07
1.42256e-06
-1.06893e-06
1.88031e-06
-1.22625e-06
2.40208e-06
-1.40234e-06
2.98812e-06
-1.58089e-06
3.63955e-06
-1.76034e-06
4.34626e-06
-1.92238e-06
5.09085e-06
-2.01919e-06
5.87061e-06
-2.12315e-06
6.68948e-06
-2.22188e-06
7.54639e-06
-2.33624e-06
8.4359e-06
-2.41203e-06
9.37539e-06
-2.55187e-06
1.03826e-05
-2.73121e-06
1.14592e-05
-2.91085e-06
1.26868e-05
-3.29592e-06
1.41754e-05
-4.03266e-06
1.59833e-05
-4.89174e-06
1.81753e-05
-5.97607e-06
2.08313e-05
-7.2494e-06
2.40337e-05
-8.80756e-06
2.78554e-05
-1.05503e-05
3.24156e-05
-1.27125e-05
3.76232e-05
-1.47359e-05
4.30476e-05
-1.55646e-05
4.75292e-05
-1.32211e-05
4.91663e-05
-4.77877e-06
4.73113e-05
5.58527e-06
4.30847e-05
1.25076e-05
3.78828e-05
1.51131e-05
3.28929e-05
1.42875e-05
2.88364e-05
1.13935e-05
7.15589e-06
3.16268e-05
3.8062e-06
3.10743e-05
1.32172e-06
3.01895e-05
2.52711e-06
2.82696e-05
6.20766e-06
2.48434e-05
1.14048e-05
1.99177e-05
1.65166e-05
1.40507e-05
1.9458e-05
8.45249e-06
1.81378e-05
4.12549e-06
1.34584e-05
1.16214e-06
8.94247e-06
-7.55369e-07
5.60019e-06
-1.94297e-06
3.38711e-06
-2.6668e-06
2.00309e-06
-3.09781e-06
1.16066e-06
-3.3555e-06
6.68242e-07
-3.51412e-06
4.02342e-07
-3.6276e-06
2.92739e-07
-3.72378e-06
2.64255e-07
-3.80643e-06
2.31633e-07
-3.87416e-06
1.89145e-07
-3.93146e-06
1.6266e-07
-3.98077e-06
1.39922e-07
-4.02457e-06
1.26817e-07
-4.06389e-06
1.1435e-07
-4.09763e-06
9.78019e-08
-4.12274e-06
6.92092e-08
-4.13609e-06
2.94143e-08
-4.14215e-06
6.2464e-09
-4.14833e-06
9.70956e-09
-4.15779e-06
2.13683e-08
-4.17089e-06
3.39475e-08
-4.18769e-06
4.54751e-08
-4.20878e-06
5.94194e-08
-4.2349e-06
7.53182e-08
-4.2692e-06
1.02408e-07
-4.31701e-06
1.48729e-07
-4.37712e-06
1.89748e-07
-4.44394e-06
2.08807e-07
-4.51425e-06
2.18779e-07
-4.58908e-06
2.30242e-07
-4.66938e-06
2.47761e-07
-4.76256e-06
2.83613e-07
-4.87261e-06
3.40824e-07
-5.02144e-06
4.52338e-07
-5.22384e-06
6.42347e-07
-5.55558e-06
1.05779e-06
-6.02421e-06
1.62624e-06
-6.44471e-06
1.37899e-06
-6.77802e-06
1.09751e-06
-7.07209e-06
9.45714e-07
-7.32951e-06
8.3745e-07
-7.56518e-06
7.60457e-07
-7.77953e-06
6.96174e-07
-7.97805e-06
6.42917e-07
-8.16116e-06
5.95062e-07
-8.33117e-06
5.52153e-07
-8.48849e-06
5.12152e-07
-8.63429e-06
4.74812e-07
-8.76894e-06
4.39301e-07
-8.89308e-06
4.05443e-07
-9.00705e-06
3.7287e-07
-9.11126e-06
3.4146e-07
-9.20598e-06
3.11032e-07
-9.29153e-06
2.81514e-07
-9.36813e-06
2.52808e-07
-9.43604e-06
2.24867e-07
-9.4955e-06
1.97637e-07
-9.54667e-06
1.71084e-07
-9.58981e-06
1.45176e-07
-9.6251e-06
1.19889e-07
-9.65272e-06
9.52026e-08
-9.67285e-06
7.10992e-08
-9.68568e-06
4.75667e-08
-9.69138e-06
2.46048e-08
-9.69015e-06
2.20573e-09
-9.68212e-06
-1.97041e-08
-9.66742e-06
-4.11683e-08
-9.64622e-06
-6.21645e-08
-9.61864e-06
-8.26857e-08
-9.58486e-06
-1.0273e-07
-9.54502e-06
-1.22294e-07
-9.49928e-06
-1.41378e-07
-9.44777e-06
-1.60004e-07
-9.39065e-06
-1.7812e-07
-9.32809e-06
-1.95774e-07
-9.26019e-06
-2.12955e-07
-9.18713e-06
-2.29617e-07
-9.10907e-06
-2.45785e-07
-9.02618e-06
-2.61483e-07
-8.93859e-06
-2.76667e-07
-8.84648e-06
-2.913e-07
-8.75e-06
-3.05466e-07
-8.64931e-06
-3.19109e-07
-8.54459e-06
-3.32169e-07
-8.43598e-06
-3.44755e-07
-8.32368e-06
-3.56788e-07
-8.20785e-06
-3.68229e-07
-8.08864e-06
-3.79143e-07
-7.96623e-06
-3.89539e-07
-7.84083e-06
-3.99308e-07
-7.71259e-06
-4.08545e-07
-7.58167e-06
-4.17246e-07
-7.44827e-06
-4.25301e-07
-7.31257e-06
-4.32831e-07
-7.17471e-06
-4.39812e-07
-7.03494e-06
-4.46154e-07
-6.8934e-06
-4.51909e-07
-6.75023e-06
-4.57168e-07
-6.60568e-06
-4.61762e-07
-6.45991e-06
-4.65787e-07
-6.31308e-06
-4.69309e-07
-6.16537e-06
-4.72191e-07
-6.01698e-06
-4.74491e-07
-5.86807e-06
-4.76272e-07
-5.71878e-06
-4.77495e-07
-5.56934e-06
-4.78088e-07
-5.41992e-06
-4.78161e-07
-5.27066e-06
-4.7773e-07
-5.12175e-06
-4.76669e-07
-4.97335e-06
-4.75122e-07
-4.82561e-06
-4.73088e-07
-4.67871e-06
-4.70437e-07
-4.53281e-06
-4.67331e-07
-4.38804e-06
-4.63749e-07
-4.24459e-06
-4.59583e-07
-4.10262e-06
-4.54992e-07
-3.96224e-06
-4.49935e-07
-3.82361e-06
-4.44347e-07
-3.68689e-06
-4.38314e-07
-3.5522e-06
-4.31895e-07
-3.41969e-06
-4.24985e-07
-3.28949e-06
-4.1763e-07
-3.16173e-06
-4.0991e-07
-3.03655e-06
-4.01719e-07
-2.91407e-06
-3.93137e-07
-2.7944e-06
-3.842e-07
-2.6777e-06
-3.74806e-07
-2.5641e-06
-3.64951e-07
-2.45375e-06
-3.54664e-07
-2.34678e-06
-3.4392e-07
-2.24342e-06
-3.32518e-07
-2.14383e-06
-3.20505e-07
-2.04831e-06
-3.07685e-07
-1.95711e-06
-2.93859e-07
-1.87065e-06
-2.78973e-07
-1.78917e-06
-2.62755e-07
-1.7133e-06
-2.45331e-07
-1.64308e-06
-2.26465e-07
-1.57898e-06
-2.08007e-07
-1.52019e-06
-1.89296e-07
-1.46542e-06
-1.79264e-07
-1.41139e-06
-1.75937e-07
-1.34762e-06
-2.20585e-07
-1.27709e-06
-2.50219e-07
-1.21389e-06
-2.12662e-07
-1.15607e-06
-1.797e-07
-1.08964e-06
-2.06887e-07
-1.00869e-06
-2.49454e-07