/*--------------------------------*- C++ -*----------------------------------*\
| =========                 |                                                 |
| \\      /  F ield         | OpenFOAM: The Open Source CFD Toolbox           |
|  \\    /   O peration     | Version:  v2006                                 |
|   \\  /    A nd           | Website:  www.openfoam.com                      |
|    \\/     M anipulation  |                                                 |
\*---------------------------------------------------------------------------*/
FoamFile
{
    version     2.0;
    format      ascii;
    class       volScalarField;
    location    "10";
    object      Pr;
}
// * * * * * * * * * * * * * * * * * * * * * * * * * * * * * * * * * * * * * //

dimensions      [0 2 -3 0 0 0 0];


internalField   nonuniform List<scalar> 
40000
(
0.171245
0.170953
0.168677
0.15745
0.129841
0.0894986
0.0468206
0.0157735
0.00276143
2.32962e-05
0.000739669
0.00202611
0.00305151
0.00361137
0.00384756
0.00384874
0.00374496
0.00361412
0.00349802
0.00337083
0.00324767
0.00313062
0.00301967
0.00291954
0.0028242
0.00273155
0.00262902
0.00251081
0.00238771
0.00226572
0.00214504
0.00202598
0.00190894
0.00179622
0.00168867
0.00159396
0.00151847
0.00145628
0.00140446
0.00136159
0.00133156
0.00131131
0.00131473
0.00133009
0.00140115
0.00149848
0.00180838
0.00221033
0.00246453
0.0027274
0.00294144
0.00315841
0.00335257
0.00354369
0.00372116
0.00389264
0.00405383
0.00420764
0.00435232
0.00448894
0.00461676
0.00473615
0.0048468
0.00494882
0.00504209
0.00512665
0.00520247
0.00526962
0.00532809
0.00537799
0.00541939
0.00545237
0.00547708
0.00549365
0.00550224
0.00550303
0.00549615
0.00548179
0.00546015
0.00543142
0.00539582
0.00535358
0.00530497
0.00525019
0.00518956
0.00512332
0.00505173
0.00497511
0.00489374
0.0048079
0.00471793
0.0046241
0.00452671
0.00442611
0.00432257
0.00421643
0.00410797
0.00399753
0.0038854
0.00377187
0.00365724
0.00354181
0.00342586
0.00330966
0.00319349
0.00307758
0.00296222
0.00284762
0.00273404
0.00262167
0.00251072
0.0024014
0.00229388
0.00218834
0.00208494
0.0019838
0.00188509
0.0017889
0.00169535
0.00160452
0.00151651
0.00143137
0.00134916
0.00126993
0.0011937
0.00112051
0.00105034
0.000983222
0.000919126
0.000858033
0.000799913
0.000744728
0.000692436
0.000642978
0.000596301
0.000552338
0.000511008
0.000472261
0.000436
0.000402172
0.000370671
0.000341481
0.000314455
0.000289654
0.000266857
0.000246265
0.000227487
0.000210975
0.00019596
0.000183212
0.000171301
0.000160796
0.00014939
0.000132351
0.000117488
0.000109627
0.000103441
9.6053e-05
8.79455e-05
7.75227e-05
6.52984e-05
5.08204e-05
3.49384e-05
1.89818e-05
5.70057e-06
9.56689e-08
1.12048e-05
5.3517e-05
0.000149375
0.000330737
0.000640118
0.00114138
0.00189442
0.00300525
0.00451805
0.00652813
0.00914847
0.0125524
0.0168755
0.0223149
0.0293398
0.0383224
0.0497061
0.0655922
0.0875601
0.117757
0.159086
0.215202
0.290516
0.388643
0.518057
0.666574
0.81688
0.888685
0.81195
0.653389
0.485763
0.347799
0.253039
0.193587
0.523578
0.512159
0.497878
0.461566
0.38462
0.274857
0.15553
0.0608449
0.014251
0.000957921
0.00147732
0.00566332
0.00963466
0.012157
0.013438
0.0137379
0.0135055
0.0130532
0.0126049
0.0121165
0.0116395
0.0111872
0.0107608
0.010375
0.0100126
0.00966472
0.0092936
0.00887034
0.00841707
0.00795427
0.00748677
0.00701923
0.00655528
0.00610522
0.00567514
0.00528749
0.00496426
0.00469401
0.00446843
0.00428274
0.00414624
0.00405236
0.00403612
0.00407473
0.00427747
0.00458839
0.00540981
0.00645423
0.00718864
0.00793503
0.00855797
0.00917821
0.00973855
0.0102851
0.0107943
0.0112838
0.0117442
0.0121821
0.0125937
0.0129814
0.0133436
0.0136808
0.0139929
0.01428
0.0145415
0.0147777
0.0149886
0.0151742
0.015335
0.0154711
0.0155825
0.01567
0.0157335
0.0157734
0.0157907
0.0157856
0.0157585
0.0157098
0.0156406
0.015551
0.0154416
0.0153135
0.0151674
0.0150035
0.0148231
0.0146268
0.0144157
0.0141899
0.013951
0.0136993
0.013436
0.0131622
0.0128781
0.0125852
0.0122842
0.011976
0.0116612
0.0113414
0.0110166
0.0106882
0.0103571
0.0100237
0.00968927
0.00935433
0.0090197
0.00868614
0.00835437
0.00802506
0.00769884
0.00737639
0.00705824
0.00674497
0.00643708
0.00613509
0.00583937
0.00555041
0.00526854
0.00499409
0.00472736
0.00446863
0.0042181
0.00397594
0.00374234
0.00351737
0.00330116
0.00309373
0.00289509
0.00270525
0.00252417
0.00235177
0.00218795
0.0020326
0.00188559
0.00174674
0.0016159
0.00149284
0.00137735
0.00126927
0.00116832
0.00107432
0.000986984
0.000906218
0.000831646
0.000763344
0.000700784
0.000644341
0.000593119
0.000548045
0.000507361
0.000472633
0.000440547
0.000412158
0.000382408
0.000344047
0.000309915
0.000288278
0.000270744
0.000250456
0.000227976
0.000199252
0.000165186
0.000124918
8.10589e-05
3.86655e-05
7.96275e-06
8.1666e-06
7.39448e-05
0.000259586
0.000648922
0.00136022
0.00255172
0.00444927
0.00727538
0.0113855
0.0169583
0.0243776
0.0340729
0.0466982
0.0628096
0.0833367
0.109955
0.144244
0.188547
0.250029
0.333605
0.446377
0.596365
0.793057
1.04502
1.3563
1.7345
2.12344
2.45651
2.5391
2.27205
1.83766
1.39317
1.02346
0.762236
0.593892
0.889042
0.854634
0.819828
0.754053
0.630567
0.459402
0.272481
0.117698
0.0336072
0.00455983
0.00135112
0.00672223
0.0130007
0.0174761
0.0200385
0.0209905
0.0209805
0.0204999
0.0199313
0.0192641
0.0185829
0.0179199
0.0172833
0.0166969
0.0161398
0.015599
0.0150251
0.0143762
0.0136768
0.0129561
0.0122236
0.0114886
0.0107577
0.0100476
0.00937001
0.0087562
0.00823756
0.00780293
0.00744209
0.00714905
0.00693672
0.00679953
0.00678663
0.00687753
0.00722214
0.00776693
0.00897885
0.0104912
0.0116574
0.0128315
0.0138334
0.0148175
0.0157135
0.0165812
0.0173917
0.0181676
0.018897
0.0195893
0.0202393
0.0208499
0.0214196
0.0219491
0.0224373
0.022885
0.0232915
0.0236576
0.0239834
0.024268
0.024513
0.024718
0.0248837
0.0250108
0.0250998
0.0251517
0.0251667
0.0251464
0.0250909
0.0250014
0.0248788
0.0247246
0.0245387
0.0243235
0.0240788
0.0238071
0.023509
0.0231862
0.022839
0.0224699
0.0220797
0.0216702
0.0212421
0.0207974
0.0203373
0.019863
0.0193764
0.0188791
0.0183718
0.0178562
0.0173338
0.0168063
0.0162744
0.0157398
0.0152036
0.0146671
0.0141314
0.013598
0.0130681
0.0125425
0.0120219
0.011508
0.0110011
0.0105028
0.010013
0.00953315
0.00906357
0.00860513
0.00815838
0.00772354
0.00730141
0.00689231
0.0064965
0.00611429
0.00574597
0.00539161
0.00505133
0.00472529
0.0044134
0.00411567
0.00383203
0.00356232
0.00330641
0.00306408
0.00283507
0.00261915
0.00241599
0.00222527
0.00204665
0.00187979
0.00172429
0.00157981
0.00144592
0.00132238
0.00120867
0.00110476
0.00100993
0.000924548
0.000847425
0.000779589
0.000718777
0.000666744
0.000619214
0.000577366
0.000535052
0.000488092
0.000445612
0.000412553
0.000383915
0.000350909
0.000314038
0.000268215
0.000214913
0.00015423
9.14491e-05
3.68348e-05
9.75198e-06
4.55665e-05
0.000205636
0.000582896
0.00131918
0.00261077
0.00471979
0.00800728
0.01284
0.019766
0.0291009
0.0414731
0.0575781
0.0784569
0.105052
0.138938
0.18271
0.239039
0.312047
0.412344
0.547496
0.728448
0.966855
1.27615
1.66697
2.14256
2.70312
3.26113
3.71134
3.80552
3.44434
2.85144
2.22187
1.67732
1.27723
1.01133
1.26535
1.19784
1.13519
1.03685
0.870721
0.646977
0.401653
0.189803
0.0636108
0.0128322
0.00185731
0.00644321
0.0143321
0.0207236
0.0247799
0.0266775
0.0271645
0.0268719
0.0263336
0.0256097
0.0248203
0.0240246
0.0232411
0.0225045
0.0217944
0.0210961
0.0203571
0.0195271
0.0186273
0.0176911
0.0167333
0.0157681
0.0148056
0.0138694
0.0129762
0.0121639
0.011469
0.0108851
0.0104029
0.010016
0.00974106
0.00957529
0.00957713
0.00973733
0.0102256
0.011008
0.0125088
0.0143442
0.0158832
0.017426
0.0187708
0.0200785
0.0212779
0.0224319
0.0235115
0.0245417
0.0255101
0.0264265
0.0272856
0.0280905
0.0288403
0.0295356
0.0301746
0.0307583
0.0312874
0.0317606
0.0321793
0.0325445
0.0328546
0.0331112
0.0333161
0.0334679
0.0335687
0.0336208
0.0336233
0.033578
0.0334866
0.0333498
0.0331686
0.0329448
0.03268
0.0323756
0.0320327
0.0316546
0.0312408
0.0307944
0.0303162
0.0298093
0.0292746
0.0287148
0.0281309
0.0275247
0.0268991
0.0262558
0.025596
0.0249218
0.0242363
0.0235398
0.022835
0.0221238
0.0214076
0.0206886
0.0199679
0.0192474
0.0185293
0.0178141
0.0171041
0.016401
0.0157051
0.0150184
0.0143426
0.0136775
0.0130252
0.0123862
0.0117619
0.0111525
0.0105592
0.00998272
0.00942325
0.00888169
0.00835823
0.00785318
0.00736702
0.0069
0.00645201
0.00602309
0.00561342
0.00522284
0.00485129
0.00449848
0.0041642
0.00384823
0.00355012
0.00326951
0.00300603
0.00275919
0.00252848
0.00231345
0.00211355
0.00192829
0.00175709
0.00159957
0.00145505
0.00132337
0.00120365
0.00109616
0.000999525
0.000914672
0.000839082
0.000774464
0.000716127
0.000665452
0.000616088
0.000569843
0.00052711
0.000485608
0.000447406
0.000403194
0.000353691
0.00029382
0.000225988
0.000152382
8.19451e-05
3.17359e-05
3.23367e-05
0.000138008
0.000439192
0.00106917
0.00222881
0.00419076
0.00731802
0.0120942
0.0190228
0.0288141
0.0419283
0.059227
0.0816524
0.110598
0.147392
0.194251
0.254559
0.332078
0.432709
0.569555
0.752347
0.995065
1.31166
1.71776
2.22355
2.82891
3.52047
4.18562
4.69049
4.77899
4.38017
3.71314
2.97379
2.3061
1.79441
1.44247
1.64992
1.54116
1.4446
1.31149
1.10659
0.838619
0.543792
0.278541
0.106398
0.0277767
0.00442856
0.00568197
0.0140969
0.0221271
0.027759
0.0308226
0.0320467
0.0321447
0.0317893
0.0311288
0.030329
0.0294793
0.0286149
0.0277793
0.0269601
0.0261422
0.0252757
0.0243093
0.0232534
0.0221441
0.0210011
0.0198433
0.0186862
0.0175572
0.0164811
0.0154979
0.0146476
0.0139307
0.0133412
0.0128753
0.0125501
0.0123707
0.0123977
0.012641
0.0132713
0.0142829
0.0159857
0.0180247
0.0198709
0.0217228
0.0233698
0.0249608
0.0264285
0.0278332
0.0291494
0.030401
0.0315777
0.0326867
0.0337257
0.0346968
0.0355985
0.0364317
0.0371968
0.0378928
0.038521
0.0390795
0.0395708
0.0399954
0.040352
0.0406439
0.0408711
0.0410342
0.041135
0.0411737
0.0411539
0.0410752
0.0409401
0.0407491
0.0405047
0.0402069
0.0398613
0.0394658
0.0390263
0.038541
0.0380151
0.0374484
0.0368452
0.0362058
0.0355335
0.034831
0.0341003
0.0333437
0.0325635
0.0317628
0.0309428
0.0301061
0.029256
0.0283942
0.0275225
0.0266433
0.0257598
0.0248733
0.0239858
0.0230997
0.0222174
0.0213394
0.020469
0.0196063
0.0187547
0.0179148
0.0170887
0.0162768
0.0154811
0.0147027
0.0139425
0.013201
0.0124802
0.0117804
0.0111024
0.0104462
0.00981313
0.00920271
0.00861606
0.00805292
0.00751329
0.00699769
0.00650612
0.00603763
0.00559299
0.00517134
0.00477264
0.00439638
0.0040421
0.00370931
0.0033975
0.00310603
0.0028343
0.0025817
0.00234752
0.00213113
0.00193181
0.00174899
0.00158188
0.00143014
0.00129279
0.00116986
0.0010599
0.00096362
0.000878477
0.000805911
0.000741226
0.000686218
0.00063477
0.000595561
0.000558235
0.000511478
0.000466003
0.00041292
0.000353684
0.000284187
0.00020832
0.000131475
6.74202e-05
4.16875e-05
9.82914e-05
0.000313079
0.000807691
0.00175716
0.0034219
0.00614859
0.0103968
0.0167597
0.0258683
0.038568
0.0554707
0.0776513
0.106283
0.143081
0.18976
0.249137
0.325288
0.423047
0.549993
0.72088
0.947091
1.24482
1.62908
2.11599
2.71321
3.41506
4.19082
4.9103
5.42236
5.49728
5.10653
4.43355
3.64912
2.90572
2.30935
1.88347
2.04002
1.88372
1.74844
1.57923
1.33937
1.03497
0.699274
0.384936
0.16392
0.0514167
0.0106058
0.00540691
0.0128466
0.0219731
0.0291098
0.0334741
0.0356298
0.0363054
0.0362777
0.0358017
0.035089
0.0342644
0.0333844
0.0325039
0.0316221
0.0307237
0.0297696
0.0287086
0.0275408
0.0263014
0.0250128
0.0237005
0.022385
0.0210966
0.0198707
0.0187445
0.0177611
0.0169287
0.0162471
0.0157167
0.0153546
0.0151749
0.0152376
0.0155741
0.0163405
0.017564
0.0193965
0.02154
0.0236242
0.0257253
0.0276313
0.0294628
0.0311615
0.0327812
0.0343003
0.0357397
0.037092
0.0383642
0.0395528
0.0406619
0.0416875
0.042634
0.0434986
0.0442811
0.0449839
0.045608
0.0461515
0.0466148
0.0470017
0.0473121
0.0475454
0.0477057
0.0477928
0.0478083
0.0477555
0.0476344
0.0474469
0.0471967
0.0468832
0.046511
0.0460808
0.0455952
0.0450574
0.044468
0.0438322
0.0431499
0.0424252
0.0416613
0.0408593
0.0400233
0.0391553
0.0382588
0.0373366
0.0363893
0.0354225
0.0344383
0.0334382
0.0324249
0.031403
0.0303738
0.0293392
0.0283026
0.0272666
0.0262338
0.025205
0.0241834
0.0231712
0.0221697
0.0211818
0.020208
0.0192509
0.018312
0.0173924
0.0164942
0.0156169
0.0147636
0.0139343
0.01313
0.0123516
0.0115994
0.0108742
0.0101765
0.00950632
0.00886369
0.00824932
0.00766323
0.0071051
0.00657447
0.00607108
0.00559508
0.00514589
0.0047227
0.00432494
0.00395245
0.00360432
0.0032797
0.00297796
0.00269824
0.00243981
0.00220182
0.00198338
0.00178381
0.00160216
0.00143788
0.00128992
0.00115802
0.00104075
0.000938442
0.000848684
0.000772625
0.000705792
0.000650594
0.000601311
0.000572842
0.00054447
0.000495704
0.000445836
0.000387051
0.000322182
0.000248935
0.00017342
0.000105395
6.47139e-05
8.71854e-05
0.000232527
0.000600817
0.0013467
0.00268811
0.00494479
0.00853463
0.0140083
0.022056
0.0334225
0.0490707
0.0697574
0.0967622
0.131464
0.175871
0.232079
0.303473
0.394711
0.511679
0.663422
0.865629
1.13082
1.47657
1.91781
2.46967
3.13552
3.90238
4.72089
5.45076
5.93547
5.99524
5.64755
5.02204
4.24728
3.47147
2.81714
2.32991
2.43262
2.22452
2.04703
1.84089
1.57002
1.23645
0.868071
0.509631
0.237908
0.0857783
0.0220424
0.00671456
0.0112293
0.0206129
0.0290089
0.0347091
0.037937
0.0393509
0.0397871
0.0396118
0.0390818
0.0383625
0.0375325
0.0366646
0.0357665
0.0348285
0.0338264
0.0327112
0.0314753
0.0301481
0.0287547
0.0273259
0.0258879
0.024476
0.0231298
0.0218896
0.0207966
0.0198677
0.0191103
0.0185294
0.0181445
0.0179759
0.0180842
0.0185189
0.0194148
0.0208268
0.0227265
0.0248928
0.0271463
0.0294359
0.0315532
0.0335815
0.0354737
0.0372723
0.0389603
0.0405541
0.0420504
0.0434552
0.0447634
0.04598
0.0471034
0.048136
0.0490743
0.0499216
0.0506764
0.051342
0.0519165
0.0524015
0.0528004
0.0531121
0.0533378
0.0534807
0.0535414
0.0535242
0.0534282
0.0532557
0.0530105
0.0526943
0.0523085
0.0518589
0.0513424
0.0507659
0.0501305
0.0494415
0.048697
0.0479047
0.047066
0.0461833
0.0452602
0.0442993
0.0433049
0.0422787
0.0412252
0.0401468
0.039046
0.0379273
0.0367921
0.0356447
0.0344891
0.0333251
0.0321582
0.0309897
0.0298236
0.0286616
0.0275065
0.0263609
0.0252258
0.024105
0.023
0.0219131
0.0208453
0.0197988
0.0187752
0.0177761
0.0168025
0.0158563
0.0149375
0.0140478
0.0131872
0.012358
0.0115584
0.0107911
0.0100546
0.0093502
0.00867774
0.00803692
0.00742738
0.00684995
0.0063032
0.00578698
0.00530064
0.00484398
0.00441588
0.00401567
0.00364305
0.00329663
0.00297564
0.00267918
0.00240627
0.002156
0.00192727
0.00171927
0.00153088
0.00136135
0.0012095
0.00107487
0.000955964
0.000852806
0.000763068
0.000687691
0.000622584
0.000570764
0.000526978
0.000510749
0.000493016
0.000445408
0.000394492
0.000334058
0.00026888
0.000199351
0.000134618
8.99872e-05
9.28402e-05
0.000191098
0.000462475
0.00103385
0.00209439
0.00390564
0.00684604
0.0114009
0.0182057
0.028034
0.0417337
0.0603611
0.0848169
0.116571
0.157188
0.208941
0.274293
0.357149
0.462667
0.597709
0.772555
1.00316
1.30271
1.68935
2.17688
2.77831
3.49083
4.29359
5.11905
5.82356
6.2576
6.30432
6.02553
5.4874
4.76761
3.99828
3.31227
2.77697
2.82423
2.56216
2.34021
2.09716
1.79898
1.44298
1.04988
0.652851
0.329817
0.132852
0.0404825
0.0108355
0.00999765
0.0184712
0.0276835
0.0346352
0.0390109
0.041289
0.0423185
0.0425491
0.0422947
0.0417593
0.0410468
0.0402466
0.0393779
0.038446
0.0374347
0.0360858
0.034784
0.0334656
0.0322114
0.0307055
0.0291818
0.0276806
0.0262464
0.0249208
0.0237418
0.0227361
0.0219201
0.0213036
0.0209079
0.0207626
0.0209224
0.02146
0.0224753
0.0240462
0.0259564
0.0280789
0.030436
0.0328545
0.0351337
0.0373176
0.0393627
0.0413023
0.0431246
0.044841
0.0464487
0.0479533
0.0493529
0.0506492
0.0518432
0.052933
0.0539206
0.0548087
0.0555946
0.0562796
0.0568668
0.0573555
0.0577481
0.0580438
0.058248
0.0583613
0.0583859
0.0583219
0.0581743
0.0579449
0.0576365
0.0572483
0.0567875
0.0562549
0.0556539
0.054987
0.0542566
0.0534678
0.0526228
0.0517247
0.0507782
0.0497839
0.048748
0.0476731
0.0465613
0.0454172
0.0442449
0.0430482
0.0418277
0.0405893
0.0393356
0.0380702
0.0367967
0.0355166
0.0342352
0.0329538
0.0316757
0.030404
0.0291406
0.0278901
0.0266536
0.0254327
0.0242307
0.0230508
0.0218919
0.0207584
0.0196507
0.0185705
0.0175202
0.0164998
0.0155113
0.0145545
0.0136318
0.0127423
0.0118878
0.0110673
0.0102825
0.00953307
0.00881878
0.0081393
0.00749422
0.00688433
0.00630895
0.00576651
0.00525704
0.0047797
0.00433391
0.00391863
0.0035329
0.00317574
0.00284613
0.00254285
0.00226516
0.00201163
0.00178119
0.00157277
0.0013851
0.00121729
0.00106799
0.000936527
0.000821277
0.000722103
0.000636702
0.000565844
0.000505851
0.000460299
0.000424337
0.000419933
0.000412919
0.00036944
0.000321194
0.000264053
0.000205176
0.000148538
0.000107177
0.000103224
0.000173104
0.000378741
0.000818124
0.0016474
0.00309147
0.00545571
0.00917614
0.0148011
0.0229027
0.0344908
0.0505343
0.0724788
0.100685
0.137099
0.183455
0.242268
0.316349
0.410061
0.528997
0.680899
0.87698
1.13293
1.46208
1.88244
2.40573
3.04154
3.78051
4.59283
5.39467
6.04675
6.41577
6.45344
6.26028
5.83817
5.20914
4.48095
3.78861
3.21957
3.21116
2.89504
2.62763
2.3486
2.02649
1.65427
1.24398
0.814404
0.440787
0.194541
0.067739
0.0191323
0.00977632
0.0152738
0.0237257
0.0307986
0.0356857
0.0386452
0.0403366
0.041123
0.0413052
0.041112
0.0406577
0.0400401
0.0392949
0.0384319
0.0374578
0.0363875
0.0352523
0.0340853
0.0329044
0.0317405
0.0306161
0.0295662
0.0286348
0.0278229
0.026583
0.0255213
0.0246629
0.0240261
0.0236318
0.0235205
0.0237381
0.0243805
0.0254985
0.0271955
0.0290714
0.0310945
0.0334914
0.0359809
0.0383729
0.0406676
0.0428273
0.0448709
0.0467906
0.0485956
0.0502834
0.0518573
0.0533179
0.0546671
0.0559025
0.0570268
0.0580402
0.0589443
0.0597378
0.0604247
0.0610032
0.0614768
0.0618469
0.0621141
0.0622828
0.0623527
0.0623291
0.0622105
0.0620043
0.0617107
0.0613304
0.0608692
0.0603297
0.0597141
0.0590264
0.0582704
0.0574489
0.0565633
0.0556217
0.0546245
0.0535757
0.0524799
0.0513398
0.0501599
0.0489444
0.047695
0.0464171
0.0451139
0.0437905
0.0424475
0.0410913
0.0397245
0.0383499
0.0369724
0.0355933
0.0342163
0.0328467
0.0314848
0.0301337
0.0287976
0.0274782
0.0261783
0.0249004
0.0236453
0.0224162
0.021215
0.0200439
0.0189031
0.0177949
0.0167209
0.015681
0.0146765
0.0137097
0.0127789
0.0118862
0.0110315
0.0102147
0.00943676
0.00869671
0.00799466
0.00733005
0.00670274
0.00611199
0.00555739
0.00503804
0.0045533
0.00410177
0.00368333
0.00329581
0.00293861
0.00261066
0.00231057
0.00203726
0.00178908
0.00156506
0.00136384
0.00118402
0.00102453
0.000883817
0.000761022
0.000654429
0.000563638
0.000486446
0.000423495
0.000371465
0.000334243
0.00030739
0.000312687
0.000315101
0.000278492
0.000236965
0.00018895
0.000144328
0.000111534
0.000108425
0.000165299
0.000329213
0.00067793
0.00133208
0.00243064
0.00422033
0.00701233
0.0112486
0.0174795
0.0264276
0.0389519
0.0560373
0.0788876
0.108553
0.146573
0.194677
0.255403
0.331371
0.426751
0.547183
0.699734
0.895041
1.15039
1.48357
1.91843
2.47632
3.18077
4.00671
4.80511
5.55884
6.13843
6.43492
6.46851
6.37019
6.08222
5.57132
4.91439
4.24005
3.65194
3.58955
3.22115
2.90882
2.59529
2.25268
1.86984
1.44926
0.993733
0.571599
0.272601
0.102658
0.0308413
0.0110882
0.0123116
0.0195362
0.0267498
0.0322752
0.0359626
0.0382948
0.0396259
0.0402608
0.0404447
0.040302
0.0399419
0.0394134
0.0387323
0.0379249
0.0370168
0.0360337
0.0350033
0.0339439
0.0328819
0.0318485
0.0308784
0.0300225
0.0293156
0.0287713
0.0282086
0.0273245
0.0266829
0.0263032
0.0262346
0.0265163
0.0272596
0.0284645
0.0302543
0.0320547
0.0339313
0.0363096
0.0388128
0.0412683
0.0436273
0.0458637
0.0479742
0.0499576
0.0518167
0.0535538
0.0551671
0.0566588
0.0580309
0.0592836
0.0604174
0.0614326
0.0623311
0.0631117
0.0637788
0.0643305
0.0647723
0.0651045
0.0653291
0.0654483
0.0654647
0.065381
0.065202
0.0649278
0.0645638
0.0641087
0.0635707
0.0629511
0.0622523
0.0614786
0.0606356
0.0597236
0.0587496
0.0577154
0.0566256
0.0554832
0.0542943
0.0530606
0.0517856
0.0504776
0.049136
0.0477664
0.0463721
0.0449589
0.0435282
0.0420859
0.0406346
0.0391772
0.0377178
0.0362612
0.034809
0.0333646
0.0319326
0.030514
0.0291133
0.0277312
0.0263717
0.0250365
0.023728
0.0224497
0.0212009
0.0199855
0.0188036
0.0176577
0.0165487
0.0154763
0.014444
0.0134499
0.0124964
0.0115834
0.0107116
0.00988066
0.00908981
0.00833973
0.00763039
0.00696113
0.00633117
0.00573973
0.00518669
0.00467059
0.00419074
0.00374592
0.0033349
0.0029567
0.00260992
0.00229341
0.00200591
0.00174559
0.00151127
0.00130133
0.0011145
0.000949223
0.000804154
0.000677638
0.000568545
0.00047512
0.000396686
0.000331128
0.000278877
0.000237068
0.00020929
0.000191744
0.000203195
0.000212511
0.000185232
0.000154758
0.000122633
0.000101588
0.000105484
0.000157936
0.000298804
0.000587427
0.0010987
0.00195517
0.00335
0.00553849
0.00885
0.0137491
0.0207997
0.0307394
0.0444166
0.0628116
0.0870953
0.118341
0.158064
0.20796
0.27054
0.348421
0.445681
0.567745
0.721525
0.916896
1.16911
1.49411
1.91284
2.44225
3.10044
3.88917
4.79486
5.6234
6.11718
6.33913
6.37253
6.37235
6.22763
5.85459
5.29337
4.65991
4.06849
3.95505
3.53822
3.18277
2.83666
2.47721
2.08884
1.66444
1.18988
0.72266
0.355572
0.143159
0.0478253
0.0153063
0.0107861
0.0160508
0.0230639
0.0290851
0.0334458
0.0364082
0.0382877
0.0393818
0.039946
0.0401184
0.0400204
0.0397082
0.0392124
0.0385694
0.0378189
0.0369854
0.0360869
0.0351398
0.034174
0.0332245
0.0323271
0.0315377
0.0308889
0.0303895
0.030059
0.0298949
0.0292616
0.0289081
0.0288911
0.0292395
0.0300779
0.0313526
0.0332001
0.034886
0.0365787
0.0388842
0.0413485
0.0438192
0.0462002
0.0484692
0.0506101
0.0526217
0.0545044
0.0562566
0.0578803
0.0593764
0.060746
0.0619907
0.0631069
0.0641022
0.0649717
0.06572
0.0663477
0.0668573
0.0672519
0.0675319
0.0676995
0.0677573
0.0677111
0.0675596
0.0673106
0.0669634
0.0665218
0.0659908
0.065373
0.0646713
0.0638886
0.0630338
0.0621055
0.0611082
0.0600498
0.0589306
0.0577553
0.0565274
0.0552545
0.0539387
0.0525832
0.0511916
0.0497728
0.0483245
0.0468556
0.0453679
0.0438659
0.0423529
0.0408354
0.0393128
0.0377918
0.0362749
0.0347671
0.0332688
0.0317845
0.0303177
0.0288706
0.0274472
0.0260493
0.0246769
0.0233362
0.0220269
0.0207512
0.0195112
0.0183077
0.0171434
0.0160175
0.0149326
0.0138894
0.012888
0.0119293
0.0110139
0.010141
0.00931168
0.00852484
0.00778111
0.00707935
0.00641978
0.00580108
0.00522316
0.00468453
0.00418405
0.00372092
0.00329414
0.00290199
0.00254367
0.00221731
0.00192164
0.00165527
0.00141627
0.00120336
0.00101497
0.000849281
0.00070465
0.000579611
0.000472358
0.00038152
0.000305225
0.000242599
0.000191543
0.000152206
0.00012214
0.000103979
9.48694e-05
0.000107623
0.000120241
0.00010446
8.96152e-05
8.1095e-05
9.43977e-05
0.000149839
0.000277715
0.000528914
0.000953652
0.00165363
0.00277322
0.00452444
0.00718605
0.0111096
0.0167863
0.0247963
0.0358934
0.0509225
0.0708596
0.0968614
0.130024
0.171861
0.224059
0.289134
0.369734
0.469898
0.594911
0.751591
0.949134
1.20072
1.52064
1.92689
2.4323
3.04877
3.77091
4.57808
5.40266
6.00128
6.15028
6.18671
6.28225
6.2828
6.05979
5.61419
5.04249
4.46355
4.30345
3.84376
3.44822
3.07221
2.69946
2.31021
1.88824
1.40165
0.878345
0.447044
0.194475
0.0715185
0.0231964
0.0110363
0.0133371
0.0196611
0.0259611
0.0309135
0.0344877
0.0369167
0.0384807
0.0394386
0.0399404
0.0401124
0.0400278
0.0397244
0.0392505
0.0386621
0.037981
0.0372185
0.0363842
0.0355178
0.0346532
0.0338321
0.0331066
0.0325153
0.0320614
0.0317716
0.0316828
0.0317471
0.0314293
0.0314736
0.0318886
0.0328136
0.0341402
0.036009
0.0375496
0.0390267
0.0412073
0.0435832
0.0460218
0.0483824
0.0506448
0.0527791
0.0547852
0.056658
0.0583958
0.0600018
0.0614758
0.0628156
0.0640249
0.0651045
0.0660551
0.0668761
0.0675742
0.0681455
0.0685976
0.0689276
0.0691407
0.0692412
0.0692286
0.0691076
0.0688816
0.0685561
0.0681303
0.0676095
0.0669981
0.0663001
0.0655171
0.0646552
0.0637178
0.062708
0.0616338
0.0604956
0.0592969
0.0580471
0.056744
0.0553984
0.0540094
0.0525852
0.0511276
0.0496418
0.0481311
0.0466018
0.045057
0.0435003
0.0419347
0.0403674
0.0387987
0.0372341
0.0356765
0.0341307
0.0325985
0.0310832
0.0295883
0.028116
0.0266695
0.0252515
0.0238648
0.0225101
0.0211897
0.0199067
0.0186615
0.0174565
0.0162919
0.0151691
0.0140901
0.0130545
0.0120633
0.0111172
0.0102147
0.00935831
0.00854629
0.00777988
0.00705684
0.00637799
0.00574242
0.00514871
0.00459631
0.00408442
0.00361175
0.00317697
0.0027793
0.00241654
0.00208776
0.00179125
0.00152529
0.00128816
0.00107826
0.000894083
0.000733663
0.000595194
0.000476763
0.000376801
0.000293272
0.000224668
0.000168911
0.00012496
9.0662e-05
6.57791e-05
4.82044e-05
3.88061e-05
3.62024e-05
4.42537e-05
5.56493e-05
5.32541e-05
5.88681e-05
8.26308e-05
0.00014255
0.00026649
0.000492308
0.000865103
0.00146111
0.00239358
0.00382731
0.00599973
0.0092152
0.0138494
0.02042
0.0295267
0.0419395
0.0584964
0.0801747
0.108129
0.143475
0.187742
0.242619
0.310654
0.39455
0.498338
0.627234
0.787914
0.988954
1.24146
1.5583
1.95424
2.43782
3.0151
3.67401
4.38702
5.08405
5.70706
5.88847
5.93023
6.11449
6.25631
6.18852
5.87369
5.38226
4.831
4.63026
4.13492
3.70368
3.30152
2.91875
2.5328
2.11902
1.62758
1.03111
0.554912
0.258399
0.10337
0.0357575
0.0135923
0.011611
0.0165745
0.0228346
0.0282492
0.0323921
0.0353687
0.0374128
0.0387808
0.0396272
0.0400862
0.0402428
0.040145
0.0398545
0.0394404
0.0389166
0.0382983
0.0375913
0.036832
0.0360604
0.0353209
0.0346678
0.0341395
0.0337372
0.0334891
0.0334424
0.0336652
0.0338537
0.0339633
0.0344443
0.0354484
0.0368033
0.0386603
0.0400263
0.0412593
0.0432728
0.0455128
0.047872
0.0501696
0.0523901
0.0544817
0.0564497
0.0582797
0.0599764
0.0615348
0.062958
0.0642452
0.0653974
0.0664155
0.0673021
0.0680567
0.0686866
0.0691861
0.0695635
0.0698175
0.069952
0.0699718
0.0698796
0.0696791
0.0693722
0.068963
0.0684574
0.0678547
0.0671623
0.0663834
0.065521
0.0645817
0.0635672
0.0624826
0.0613346
0.0601236
0.0588579
0.0575396
0.056174
0.0547648
0.0533186
0.0518362
0.0503257
0.0487876
0.0472327
0.0456575
0.0440709
0.0424764
0.0408771
0.0392775
0.0376808
0.0360923
0.0345148
0.0329488
0.0314015
0.0298753
0.0283725
0.0268952
0.0254466
0.0240285
0.0226456
0.0212966
0.0199865
0.0187147
0.0174841
0.0162956
0.01515
0.0140492
0.0129932
0.0119834
0.0110194
0.0101017
0.0092303
0.00840539
0.00762764
0.00689481
0.00620775
0.00556554
0.00496681
0.00441134
0.00389751
0.00342443
0.00299143
0.00259595
0.00223742
0.00191363
0.00162342
0.00136524
0.00113699
0.000937009
0.000763313
0.000614396
0.000487763
0.000381994
0.000294705
0.000224201
0.00016826
0.000125193
9.27607e-05
6.96871e-05
5.37512e-05
4.40916e-05
3.89455e-05
3.64114e-05
3.73627e-05
3.36831e-05
3.85157e-05
5.11364e-05
8.23112e-05
0.000148009
0.000268392
0.000479978
0.000817927
0.00134302
0.00214565
0.00335545
0.00516002
0.00782431
0.0116798
0.0171262
0.0247106
0.0350462
0.0489191
0.0671633
0.0907555
0.120841
0.15858
0.205499
0.263322
0.334622
0.422194
0.530066
0.663299
0.828694
1.03379
1.28821
1.60267
1.98908
2.45143
2.99061
3.58783
4.2099
4.78663
5.27803
5.5718
5.6192
5.88311
6.15662
6.24403
6.06941
5.67384
5.1653
4.93095
4.40886
3.94747
3.52312
3.13419
2.75548
2.35474
1.85219
1.20098
0.680396
0.336695
0.144989
0.0541808
0.0191817
0.011245
0.0139527
0.0197289
0.0254031
0.0300398
0.0335443
0.0360706
0.0378645
0.0390732
0.0398408
0.0402579
0.040383
0.0402927
0.0400645
0.0397155
0.039253
0.038686
0.0380483
0.037384
0.0367355
0.036166
0.0357111
0.0353697
0.0351728
0.0351759
0.0354517
0.0361638
0.0363409
0.0368886
0.0379606
0.0393222
0.041133
0.0422974
0.0432632
0.0450717
0.0471346
0.0493715
0.0515652
0.0537044
0.0557183
0.0576167
0.0593741
0.0609997
0.0624833
0.063833
0.0650433
0.0661168
0.0670529
0.0678579
0.06853
0.0690716
0.0694856
0.069774
0.0699408
0.0699884
0.0699202
0.0697411
0.0694532
0.0690601
0.0685665
0.0679769
0.0672921
0.0665184
0.065659
0.0647206
0.0637065
0.0626219
0.0614704
0.0602542
0.0589817
0.0576566
0.0562797
0.0548624
0.0534025
0.0519098
0.0503864
0.0488362
0.0472643
0.0456771
0.0440753
0.0424639
0.0408488
0.0392334
0.037621
0.0360156
0.0344217
0.0328407
0.0312778
0.0297355
0.0282162
0.0267244
0.0252612
0.0238305
0.022434
0.0210735
0.0197514
0.0184689
0.0172282
0.016031
0.0148773
0.0137693
0.0127076
0.0116931
0.0107252
0.00980484
0.00893236
0.00810806
0.00733086
0.00660081
0.0059167
0.0052796
0.0046867
0.00413822
0.00363294
0.00316991
0.00274696
0.00236302
0.00201734
0.00170738
0.00143189
0.00118884
0.000976932
0.000793645
0.000637508
0.000506475
0.000398238
0.000310918
0.000242429
0.000190498
0.000153071
0.000127833
0.000112921
0.000105886
0.000105202
0.0001085
0.000114037
0.000120374
0.000121795
0.000122354
9.89871e-05
9.11884e-05
0.00012024
0.000182365
0.000300703
0.000497039
0.000817717
0.00128487
0.00199423
0.00304269
0.00457952
0.00681694
0.0100492
0.0146358
0.0209996
0.0297148
0.0414121
0.0568816
0.076954
0.102604
0.134967
0.175242
0.224967
0.285892
0.360643
0.45206
0.564245
0.702137
0.872326
1.08183
1.33808
1.65005
2.02641
2.46733
2.96798
3.50415
4.03823
4.50211
4.87271
5.17897
5.26867
5.60043
5.99274
6.22991
6.20046
5.91309
5.46154
5.20155
4.66227
4.17721
3.7356
3.34417
2.97647
2.59368
2.05498
1.38748
0.82438
0.43102
0.19809
0.0798163
0.0287292
0.0127609
0.0120627
0.0167562
0.0224007
0.0274054
0.0313862
0.0343906
0.0366186
0.0382069
0.0393009
0.0399991
0.0403689
0.0404963
0.0404694
0.0403121
0.0400246
0.0396108
0.0391118
0.038569
0.0380299
0.0375586
0.0371888
0.03692
0.0367859
0.0368459
0.0371807
0.0378301
0.0385903
0.0392
0.0403256
0.041673
0.0434046
0.0443472
0.0450258
0.0465931
0.0484388
0.0505148
0.0525684
0.0545897
0.0564941
0.0582901
0.059948
0.061474
0.0628606
0.0641111
0.0652215
0.0661963
0.0670353
0.067738
0.0683114
0.0687515
0.0690665
0.0692568
0.0693269
0.0692778
0.0691147
0.0688411
0.068461
0.0679784
0.0673998
0.0667232
0.0659581
0.0651057
0.0641728
0.063163
0.0620798
0.0609285
0.0597162
0.0584434
0.0571187
0.0557429
0.0543228
0.052864
0.0513703
0.0498439
0.0482918
0.0467191
0.0451293
0.0435249
0.0419122
0.0402959
0.0386781
0.0370659
0.0354574
0.0338632
0.0322824
0.030719