/*--------------------------------*- C++ -*----------------------------------*\
| =========                 |                                                 |
| \\      /  F ield         | OpenFOAM: The Open Source CFD Toolbox           |
|  \\    /   O peration     | Version:  v2006                                 |
|   \\  /    A nd           | Website:  www.openfoam.com                      |
|    \\/     M anipulation  |                                                 |
\*---------------------------------------------------------------------------*/
FoamFile
{
    version     2.0;
    format      ascii;
    class       volScalarField;
    location    "10";
    object      S;
}
// * * * * * * * * * * * * * * * * * * * * * * * * * * * * * * * * * * * * * //

dimensions      [0 0 -1 0 0 0 0];


internalField   nonuniform List<scalar> 
40000
(
5.68513
5.68044
5.64296
5.45668
4.97062
4.15654
3.0452
1.79783
0.76388
0.0709975
0.403242
0.670197
0.823267
0.89389
0.918468
0.91218
0.891451
0.866174
0.843
0.819115
0.796244
0.77461
0.754163
0.735458
0.717752
0.700729
0.682686
0.662365
0.640786
0.618754
0.59635
0.573673
0.550805
0.528157
0.50593
0.485386
0.467873
0.452798
0.439788
0.428671
0.420106
0.413658
0.411549
0.41194
0.421464
0.435272
0.478333
0.528899
0.558485
0.587514
0.610133
0.632235
0.651378
0.669687
0.686252
0.701885
0.71627
0.729732
0.742171
0.75373
0.764386
0.774206
0.783198
0.791398
0.798821
0.805492
0.811426
0.816645
0.821164
0.825
0.828169
0.830686
0.832566
0.833824
0.834476
0.834535
0.834014
0.832924
0.831278
0.829088
0.826366
0.823126
0.81938
0.815139
0.810418
0.805229
0.799584
0.793497
0.786982
0.780049
0.772716
0.764993
0.756895
0.748437
0.739631
0.730493
0.721038
0.711279
0.701232
0.690911
0.680332
0.669509
0.658459
0.647196
0.635736
0.624092
0.612284
0.600324
0.588229
0.576014
0.563694
0.551285
0.538803
0.526262
0.513678
0.501064
0.488438
0.475813
0.463206
0.450626
0.438093
0.425618
0.413215
0.400897
0.38868
0.376575
0.364594
0.352752
0.341061
0.329531
0.318174
0.307003
0.296029
0.285261
0.274711
0.264391
0.254307
0.244475
0.234902
0.225606
0.21659
0.207887
0.199491
0.191462
0.183774
0.176541
0.169677
0.163403
0.157481
0.152272
0.14724
0.142653
0.137501
0.129404
0.12188
0.11789
0.114879
0.111239
0.107126
0.101367
0.0938741
0.0836607
0.0701323
0.0523112
0.029027
0.00380828
0.0417147
0.0922218
0.15577
0.234162
0.328899
0.443011
0.575347
0.729938
0.901123
1.09126
1.30198
1.53772
1.79817
2.08731
2.41678
2.78984
3.21244
3.73104
4.35023
5.08133
5.93322
6.91421
8.02416
9.24366
10.5879
11.8674
12.9379
13.2671
12.5195
11.1504
9.58449
8.10296
6.91095
6.04462
5.72365
5.66108
5.58073
5.37022
4.8962
4.13063
3.0981
1.93024
0.92968
0.239704
0.295885
0.575621
0.745815
0.832092
0.86883
0.872427
0.859096
0.838881
0.818903
0.797695
0.776895
0.756938
0.737869
0.720209
0.703377
0.687071
0.669927
0.650828
0.630477
0.609569
0.588239
0.566623
0.544825
0.523244
0.502142
0.482565
0.465666
0.451101
0.43861
0.428069
0.420041
0.414284
0.41265
0.413988
0.423701
0.438549
0.476087
0.520018
0.548822
0.576625
0.598846
0.620182
0.638848
0.656547
0.672617
0.687716
0.70162
0.714595
0.726583
0.737698
0.747933
0.75734
0.765945
0.773778
0.780843
0.787174
0.792784
0.797691
0.801918
0.805482
0.808389
0.810667
0.81232
0.813361
0.813817
0.813696
0.813008
0.811759
0.809978
0.807663
0.804826
0.801489
0.797663
0.793348
0.788571
0.783338
0.777669
0.771561
0.765043
0.758113
0.750798
0.743112
0.735052
0.726644
0.717904
0.708844
0.699467
0.68981
0.679862
0.669652
0.659199
0.648501
0.637591
0.626473
0.615164
0.603681
0.592038
0.58025
0.568332
0.5563
0.544169
0.531952
0.519666
0.507326
0.494945
0.48254
0.470124
0.457712
0.445317
0.432955
0.420639
0.408382
0.396199
0.384102
0.372104
0.36022
0.348459
0.336836
0.325362
0.314051
0.30291
0.291954
0.281193
0.270638
0.2603
0.250188
0.240311
0.230686
0.221318
0.212223
0.20341
0.194906
0.186711
0.178875
0.171385
0.164335
0.157664
0.151551
0.145814
0.140732
0.135867
0.131413
0.126578
0.120062
0.113975
0.109995
0.106713
0.102793
0.0982626
0.0920801
0.0840695
0.0733355
0.0592792
0.0410969
0.0187267
0.0190484
0.0575847
0.108418
0.172284
0.250733
0.345254
0.458387
0.589418
0.7415
0.910118
1.09752
1.30518
1.53712
1.79354
2.07881
2.40301
2.77019
3.18824
3.69642
4.29916
5.00747
5.82793
6.76653
7.81918
8.96527
10.1999
11.3483
12.2648
12.5178
11.876
10.7023
9.32992
8.00137
6.90623
6.09588
5.75521
5.64293
5.52595
5.29647
4.83723
4.12004
3.16318
2.07039
1.10078
0.403166
0.21811
0.483353
0.667697
0.768874
0.817672
0.831137
0.825291
0.810325
0.793777
0.775381
0.756774
0.738588
0.720978
0.704446
0.688561
0.673046
0.656819
0.638896
0.619736
0.599931
0.57965
0.559063
0.538293
0.51773
0.497682
0.479023
0.462743
0.44869
0.436702
0.426709
0.419192
0.414067
0.412881
0.415014
0.424828
0.440282
0.473286
0.511594
0.539297
0.565815
0.587505
0.608059
0.626188
0.643262
0.65881
0.673361
0.686762
0.699242
0.710764
0.72142
0.731223
0.74022
0.748422
0.755866
0.762564
0.768547
0.773833
0.778424
0.782357
0.785634
0.788275
0.790295
0.791713
0.792542
0.792788
0.792478
0.791614
0.790209
0.788279
0.785839
0.782887
0.779455
0.775531
0.771149
0.766313
0.761038
0.755324
0.7492
0.742673
0.735757
0.728456
0.720796
0.712779
0.704421
0.695743
0.686758
0.677471
0.667896
0.658054
0.647964
0.637627
0.627068
0.616293
0.605322
0.594162
0.58284
0.571368
0.559759
0.548018
0.536173
0.524229
0.512215
0.500126
0.487992
0.475819
0.463626
0.451426
0.439228
0.427052
0.414912
0.402818
0.390785
0.378827
0.366956
0.355183
0.343525
0.33199
0.320592
0.309343
0.298254
0.287337
0.276602
0.266061
0.255725
0.245603
0.235705
0.226043
0.216628
0.207471
0.198585
0.18998
0.18168
0.173689
0.166052
0.158761
0.151899
0.145422
0.139477
0.133923
0.128981
0.124296
0.12002
0.115534
0.110348
0.105459
0.101536
0.0980538
0.0938847
0.0889858
0.0824284
0.0739841
0.0628669
0.0485744
0.0309435
0.0159862
0.034706
0.0740668
0.125301
0.189443
0.267886
0.362097
0.474196
0.603795
0.75335
0.919285
1.10377
1.30815
1.53612
1.78827
2.06928
2.38794
2.74893
3.1615
3.65872
4.24472
4.92998
5.71892
6.61528
7.6115
8.6855
9.81622
10.8435
11.6261
11.8212
11.2813
10.2864
9.09168
7.90412
6.8984
6.13827
5.77978
5.62369
5.47377
5.22813
4.78481
4.11553
3.23238
2.21269
1.27442
0.569099
0.215167
0.398149
0.589832
0.70443
0.765017
0.788341
0.790115
0.780611
0.767714
0.752258
0.735947
0.719618
0.703534
0.688207
0.67333
0.658667
0.643377
0.626617
0.608655
0.58997
0.570757
0.551214
0.531478
0.511946
0.492934
0.475201
0.459574
0.446062
0.434595
0.425141
0.418145
0.413619
0.412871
0.41569
0.42553
0.441232
0.47025
0.503569
0.529909
0.555062
0.576097
0.595842
0.613394
0.629824
0.644817
0.658808
0.671693
0.683667
0.694705
0.704892
0.714253
0.722824
0.730615
0.737663
0.743993
0.749611
0.75455
0.758832
0.76245
0.765435
0.76781
0.769567
0.770738
0.771347
0.771384
0.770875
0.769833
0.768268
0.766187
0.763606
0.760539
0.756996
0.752983
0.748533
0.743629
0.738303
0.732554
0.726407
0.719868
0.712955
0.705673
0.698032
0.690055
0.681757
0.673139
0.664215
0.655018
0.645539
0.635802
0.625823
0.615609
0.605184
0.594549
0.583722
0.572728
0.561565
0.55026
0.538828
0.527272
0.515614
0.503875
0.492051
0.480172
0.468243
0.456286
0.444305
0.432322
0.420352
0.408399
0.396486
0.384621
0.372816
0.361088
0.349451
0.337912
0.326483
0.315181
0.304013
0.292996
0.282137
0.271448
0.260942
0.250627
0.240514
0.230616
0.22094
0.211498
0.202301
0.19336
0.184688
0.176295
0.168204
0.160422
0.152988
0.145901
0.13923
0.132948
0.127177
0.121806
0.117019
0.112522
0.108465
0.104362
0.100369
0.0965525
0.0927319
0.0891046
0.0847137
0.0794941
0.0726213
0.0638601
0.0525988
0.0387027
0.0241751
0.0245013
0.0508354
0.091101
0.142822
0.207237
0.285632
0.379445
0.490438
0.618472
0.765438
0.928575
1.10998
1.3109
1.53473
1.78243
2.05885
2.37169
2.72623
3.13244
3.6179
4.18648
4.84781
5.60424
6.45737
7.39634
8.39735
9.42625
10.3377
10.9996
11.1498
10.7085
9.88089
8.85408
7.80173
6.88307
6.17105
5.79709
5.60294
5.42373
5.16465
4.73788
4.11545
3.30331
2.35409
1.44744
0.735275
0.291757
0.328317
0.513665
0.639161
0.710992
0.744084
0.753583
0.749716
0.74071
0.728309
0.714408
0.700023
0.685545
0.671479
0.657667
0.643916
0.629587
0.614
0.597229
0.579678
0.561554
0.543065
0.524386
0.505879
0.487907
0.471101
0.456161
0.443214
0.432274
0.423372
0.416876
0.412939
0.412605
0.416015
0.425808
0.441461
0.466937
0.495823
0.520611
0.544343
0.564616
0.583533
0.600459
0.616224
0.63064
0.644052
0.656412
0.667854
0.678401
0.688112
0.69701
0.705133
0.712512
0.71916
0.72511
0.730361
0.734951
0.738895
0.742193
0.744885
0.746976
0.748475
0.749405
0.749766
0.749597
0.748889
0.747666
0.745927
0.743697
0.740966
0.737781
0.734119
0.730026
0.72548
0.720518
0.715133
0.709355
0.703177
0.696623
0.689706
0.682436
0.674827
0.666887
0.65864
0.650084
0.641236
0.632119
0.62274
0.613107
0.603236
0.593149
0.582854
0.57236
0.561688
0.550855
0.539859
0.528734
0.517469
0.506105
0.49464
0.483099
0.47148
0.459808
0.448097
0.436355
0.42459
0.412833
0.401089
0.389372
0.377685
0.366059
0.354487
0.342998
0.331596
0.32029
0.3091
0.298042
0.287107
0.276329
0.265705
0.255253
0.244981
0.234899
0.225018
0.215349
0.205901
0.196685
0.187712
0.178993
0.170541
0.162366
0.154489
0.146921
0.139693
0.132813
0.126338
0.120251
0.114657
0.109472
0.10485
0.100552
0.0967465
0.0930467
0.090127
0.0872757
0.0835931
0.0798753
0.0753002
0.0698226
0.0627315
0.0538529
0.0429124
0.0308334
0.0243353
0.0375175
0.0672467
0.108503
0.160804
0.225516
0.303849
0.397197
0.507026
0.633383
0.77771
0.937969
1.11614
1.31342
1.53296
1.77605
2.04756
2.35434
2.7021
3.10114
3.57414
4.1246
4.76119
5.48427
6.29325
7.1744
8.10196
9.03149
9.83306
10.3866
10.5029
10.1554
9.48345
8.61493
7.69219
6.85863
6.19381
5.80696
5.58026
5.37529
5.10543
4.69559
4.11852
3.37433
2.49281
1.61828
0.901056
0.406672
0.288466
0.441657
0.573675
0.655774
0.698417
0.715689
0.717646
0.71271
0.703517
0.692141
0.679785
0.666975
0.654244
0.641569
0.628779
0.615454
0.601029
0.585457
0.569061
0.552033
0.534614
0.516999
0.499517
0.482589
0.466707
0.452485
0.440125
0.429724
0.421374
0.415384
0.412003
0.412071
0.415979
0.42564
0.441012
0.463348
0.488279
0.51137
0.533641
0.55307
0.57112
0.587368
0.602453
0.616268
0.62908
0.640885
0.651797
0.661831
0.67106
0.679483
0.687168
0.694114
0.700342
0.705892
0.710783
0.715018
0.71861
0.721598
0.723988
0.725781
0.727014
0.727688
0.727817
0.727424
0.726509
0.725088
0.723182
0.720784
0.717925
0.714604
0.710836
0.706637
0.702006
0.696975
0.691534
0.685708
0.679511
0.672942
0.666025
0.658768
0.651185
0.643292
0.635081
0.626589
0.617825
0.608789
0.599495
0.589973
0.580225
0.570257
0.560092
0.549745
0.539232
0.528552
0.517728
0.506776
0.495702
0.48453
0.473259
0.461913
0.450506
0.439046
0.427555
0.416027
0.404499
0.39297
0.381457
0.369974
0.358528
0.347136
0.335811
0.324562
0.313396
0.302336
0.291395
0.280579
0.269895
0.259353
0.248974
0.238768
0.228736
0.218888
0.209246
0.199815
0.190602
0.181619
0.172875
0.164385
0.156159
0.148208
0.140551
0.133199
0.126183
0.119512
0.113235
0.107346
0.101931
0.0969311
0.0924835
0.0883907
0.0848618
0.0815822
0.0796274
0.0776471
0.0741345
0.0703813
0.0656747
0.0600326
0.05289
0.0442627
0.0346108
0.0272122
0.0317023
0.051981
0.0839154
0.126206
0.179157
0.244195
0.32246
0.4153
0.523926
0.648498
0.79017
0.947451
1.12228
1.31575
1.53086
1.76916
2.03549
2.33595
2.67665
3.06774
3.52763
4.05934
4.67048
5.35947
6.12365
6.94663
7.80077
8.634
9.33178
9.78862
9.88023
9.6207
9.09242
8.3727
7.57415
6.82418
6.20585
5.80915
5.5553
5.32822
5.04971
4.65727
4.12382
3.44404
2.62748
1.78586
1.06607
0.537025
0.294454
0.378229
0.50895
0.599635
0.651434
0.676455
0.684376
0.683692
0.67785
0.66911
0.658878
0.647807
0.636504
0.625019
0.61325
0.600962
0.587691
0.57333
0.558102
0.542194
0.525857
0.509307
0.492874
0.47696
0.462012
0.448533
0.436787
0.426943
0.419136
0.413657
0.410792
0.41125
0.415546
0.425029
0.43994
0.459467
0.480868
0.502176
0.522938
0.541433
0.558578
0.574112
0.588501
0.601693
0.613891
0.625127
0.635497
0.645006
0.653726
0.661677
0.668903
0.675404
0.681222
0.686365
0.69087
0.694736
0.697986
0.700649
0.702724
0.704227
0.70518
0.70559
0.705486
0.704862
0.703732
0.702119
0.700029
0.697471
0.694473
0.691014
0.68713
0.682822
0.678119
0.673
0.667508
0.661643
0.655414
0.648835
0.641913
0.634671
0.627109
0.619248
0.611097
0.602664
0.593969
0.585014
0.57582
0.56641
0.556769
0.546935
0.536907
0.526707
0.516344
0.505831
0.495185
0.484404
0.473519
0.462537
0.451473
0.440334
0.429136
0.417893
0.40662
0.395325
0.384029
0.372734
0.361461
0.35021
0.339018
0.327864
0.316791
0.305786
0.294876
0.284072
0.273378
0.262804
0.252378
0.242093
0.231964
0.222
0.212218
0.202621
0.193217
0.184032
0.17506
0.166316
0.157811
0.149555
0.141561
0.133839
0.126408
0.119279
0.112478
0.106017
0.0999405
0.0942485
0.0890162
0.0842006
0.0799317
0.076052
0.0728163
0.0699657
0.0688798
0.0676881
0.0643772
0.0606501
0.0558941
0.0502406
0.0433589
0.0357252
0.0292972
0.0298583
0.0429959
0.0671551
0.100838
0.144177
0.197823
0.263208
0.341405
0.433697
0.541081
0.66381
0.802782
0.956999
1.12837
1.31792
1.52846
1.76181
2.02272
2.31663
2.64992
3.03237
3.47851
3.9909
4.57594
5.23025
5.94933
6.71388
7.49507
8.23557
8.83563
9.20694
9.28132
9.10353
8.70689
8.12648
7.44657
6.77879
6.2067
5.80312
5.5275
5.28183
4.99694
4.62197
4.13023
3.51144
2.75699
1.94935
1.22995
0.674682
0.346761
0.330843
0.446629
0.543033
0.603258
0.635913
0.649882
0.653667
0.651284
0.645296
0.637288
0.628044
0.618233
0.607983
0.59732
0.586096
0.573988
0.560837
0.546786
0.532012
0.51678
0.501311
0.485931
0.471035
0.457026
0.444306
0.433195
0.423923
0.416661
0.411677
0.40931
0.410105
0.414728
0.423977
0.438269
0.455247
0.473496
0.492981
0.512207
0.529689
0.545917
0.56069
0.574352
0.586899
0.598477
0.609125
0.618926
0.627906
0.636112
0.64358
0.650321
0.656372
0.661768
0.666508
0.670614
0.674114
0.677015
0.67934
0.681088
0.682295
0.682968
0.683121
0.682756
0.681901
0.680563
0.678758
0.676476
0.673755
0.670595
0.667011
0.663009
0.658597
0.653797
0.648615
0.643061
0.637155
0.63089
0.624295
0.617378
0.610139
0.6026
0.594774
0.586678
0.578303
0.569679
0.560813
0.551719
0.542414
0.532896
0.523194
0.513309
0.503256
0.493049
0.482695
0.472224
0.461636
0.450938
0.440151
0.429299
0.418366
0.407389
0.396368
0.385317
0.37426
0.363194
0.352144
0.341108
0.330115
0.31916
0.30827
0.297439
0.286695
0.276047
0.2655
0.255064
0.244745
0.234571
0.224552
0.214678
0.204972
0.195442
0.186102
0.176958
0.168021
0.159298
0.150802
0.142539
0.134529
0.126774
0.119289
0.112091
0.105189
0.0986091
0.092362
0.086489
0.0809907
0.0759416
0.0713079
0.0672214
0.0635564
0.0606257
0.0582078
0.0579048
0.0574315
0.0543576
0.0507378
0.0460719
0.0406887
0.0346993
0.0295534
0.0290909
0.0377989
0.0561172
0.0828074
0.11801
0.162394
0.216759
0.282506
0.360632
0.452334
0.558447
0.679276
0.815524
0.966638
1.13444
1.31993
1.52581
1.75405
2.00927
2.29642
2.622
2.9951
3.42695
3.91949
4.47792
5.0971
5.77059
6.47711
7.18629
7.83765
8.3467
8.64276
8.70586
8.6028
8.3263
7.87537
7.30872
6.72149
6.19599
5.78852
5.4964
5.23556
4.94671
4.5889
4.13682
3.57551
2.88044
2.10801
1.39222
0.81636
0.431007
0.309811
0.389532
0.486698
0.554095
0.594115
0.614192
0.62259
0.623818
0.620677
0.614996
0.607662
0.599404
0.590488
0.580966
0.570834
0.559905
0.547976
0.535116
0.521483
0.507378
0.492996
0.478665
0.464796
0.451729
0.439789
0.429334
0.420638
0.413922
0.409423
0.407527
0.408636
0.413517
0.422446
0.436005
0.450695
0.466114
0.483758
0.501428
0.517841
0.533112
0.547099
0.560012
0.571879
0.582819
0.592867
0.602087
0.61052
0.618209
0.625168
0.631435
0.637033
0.641988
0.646306
0.650023
0.653138
0.655679
0.657661
0.65909
0.659994
0.660374
0.660259
0.659639
0.658554
0.657001
0.654981
0.652521
0.64963
0.646314
0.642588
0.638466
0.633955
0.629055
0.623803
0.61819
0.612231
0.605941
0.599327
0.592404
0.585184
0.57767
0.569881
0.561826
0.553526
0.544973
0.536197
0.527205
0.518004
0.508616
0.49904
0.489291
0.479398
0.469354
0.459172
0.448876
0.438471
0.427972
0.417394
0.406737
0.396022
0.385264
0.374477
0.363662
0.352839
0.342023
0.331214
0.320427
0.309691
0.29899
0.288355
0.277791
0.267306
0.256923
0.24664
0.236472
0.226427
0.216518
0.206754
0.197148
0.187707
0.178446
0.169364
0.16049
0.151811
0.143346
0.135108
0.127103
0.119347
0.11184
0.104601
0.0976437
0.0909776
0.0846267
0.0785988
0.0729329
0.0676311
0.0627632
0.0583058
0.0544011
0.0509485
0.0483273
0.0463442
0.0467417
0.0469318
0.0441489
0.0407676
0.0364576
0.0319233
0.0281273
0.0278062
0.0344367
0.0487621
0.070232
0.0988419
0.135425
0.180841
0.235932
0.302039
0.380087
0.471183
0.575992
0.694856
0.828384
0.976343
1.1405
1.32182
1.52292
1.7459
1.99523
2.27541
2.59293
2.95609
3.37308
3.84537
4.37671
4.96039
5.58807
6.23727
6.87564
7.4421
7.86659
8.09673
8.1533
8.11782
7.95001
7.61889
7.16005
6.65175
6.17303
5.76503
5.46137
5.18901
4.89835
4.55753
4.14292
3.63532
2.99714
2.26117
1.55236
0.960454
0.533901
0.323122
0.342238
0.431784
0.504329
0.551193
0.577336
0.590459
0.595421
0.59525
0.591988
0.586635
0.580012
0.572486
0.564164
0.555182
0.545451
0.534739
0.523079
0.510629
0.497636
0.48435
0.471073
0.458236
0.446109
0.434971
0.425182
0.417065
0.4109
0.406884
0.405429
0.406832
0.411886
0.420445
0.433193
0.4458
0.458665
0.47448
0.490575
0.505867
0.520138
0.533316
0.545461
0.556635
0.566911
0.576348
0.584978
0.592846
0.599994
0.606447
0.612231
0.617365
0.621875
0.625768
0.629078
0.631803
0.63398
0.635614
0.636719
0.63731
0.637399
0.637
0.636136
0.634806
0.633031
0.630804
0.628159
0.625097
0.621624
0.617756
0.613512
0.608886
0.603905
0.598571
0.592897
0.586891
0.580572
0.573942
0.567007
0.559804
0.552316
0.544567
0.536562
0.528324
0.519852
0.511167
0.502277
0.493188
0.483916
0.47448
0.464881
0.455133
0.445258
0.435255
0.425146
0.414931
0.404631
0.394253
0.383811
0.373327
0.362793
0.352238
0.341662
0.331086
0.320517
0.309956
0.299437
0.288947
0.278514
0.268145
0.257854
0.247648
0.237527
0.227513
0.21762
0.207854
0.198224
0.188735
0.17941
0.170247
0.161262
0.152462
0.143852
0.135447
0.127254
0.119287
0.111557
0.104065
0.0968271
0.0898484
0.0831472
0.0767332
0.0706251
0.0648304
0.0593817
0.0542827
0.049599
0.0453145
0.0415848
0.0383402
0.0360231
0.0344792
0.0354937
0.036306
0.0339169
0.0310344
0.027667
0.0252289
0.0257667
0.0316126
0.0436134
0.0613566
0.0849994
0.115212
0.153077
0.199502
0.255314
0.321781
0.399722
0.490183
0.59367
0.710547
0.841317
0.986084
1.14653
1.32359
1.51983
1.73744
1.98067
2.25366
2.56282
2.91542
3.31724
3.76887
4.27278
4.82071
5.40299
5.99512
6.56446
7.05064
7.39712
7.56983
7.62299
7.64812
7.57778
7.35707
6.99991
6.56878
6.13759
5.73214
5.42184
5.14147
4.85086
4.52709
4.14775
3.69026
3.10651
2.40824
1.70983
1.10595
0.647807
0.369576
0.311538
0.380235
0.454497
0.50733
0.53935
0.557268
0.566086
0.569003
0.568243
0.564952
0.560052
0.55397
0.546923
0.539123
0.530595
0.521125
0.510681
0.499402
0.487544
0.475367
0.463156
0.451343
0.440162
0.429826
0.420732
0.41322
0.40759
0.404048
0.40301
0.40467
0.409825
0.417978
0.429849
0.440534
0.451095
0.465106
0.47963
0.493764
0.507014
0.519328
0.530686
0.541142
0.55075
0.559545
0.567575
0.574876
0.58148
0.587419
0.592695
0.597362
0.601411
0.604876
0.607768
0.610108
0.611916
0.613198
0.613968
0.61424
0.61404
0.61336
0.612238
0.610665
0.608655
0.606228
0.603391
0.600151
0.596514
0.592516
0.588142
0.583407
0.578337
0.572927
0.567189
0.561131
0.554781
0.548139
0.54121
0.534004
0.526554
0.518839
0.510894
0.50272
0.494329
0.48573
0.47695
0.467974
0.458832
0.449529
0.440087
0.430499
0.420786
0.410961
0.401032
0.39102
0.380931
0.370759
0.360546
0.350284
0.339987
0.32967
0.319339
0.309016
0.298693
0.288399
0.27814
0.267923
0.257763
0.247673
0.237654
0.227726
0.21789
0.208166
0.198555
0.189077
0.179733
0.170543
0.161507
0.152634
0.143937
0.135429
0.12711
0.119002
0.111104
0.10343
0.0959922
0.0887902
0.0818431
0.0751628
0.0687531
0.0626245
0.0567959
0.0512713
0.0460774
0.0412125
0.0367412
0.0326461
0.0291007
0.0260679
0.0240512
0.022973
0.0244684
0.0258686
0.0241263
0.02237
0.0213114
0.0230364
0.0290895
0.0397077
0.0549636
0.0749377
0.100264
0.131892
0.17096
0.218364
0.274876
0.341692
0.419516
0.509306
0.611458
0.726312
0.854341
0.995878
1.15255
1.32528
1.51658
1.72869
1.96566
2.2313
2.5318
2.87343
3.25953
3.69015
4.16636
4.67873
5.21574
5.75196
6.25456
6.66483
6.93993
7.06266
7.11463
7.19314
7.20965
7.08996
6.82855
6.47258
6.08949
5.68958
5.3773
5.0923
4.80366
4.49684
4.15064
3.74006
3.20823
2.5487
1.86413
1.25207
0.768651
0.440958
0.305099
0.335226
0.405481
0.462784
0.500331
0.523056
0.535798
0.541901
0.543742
0.542614
0.539494
0.534936
0.529218
0.522633
0.515331
0.50711
0.497903
0.487796
0.477094
0.466033
0.454914
0.444109
0.433874
0.424358
0.415976
0.409069
0.403977
0.400886
0.400256
0.402129
0.407318
0.415032
0.425974
0.434898
0.44337
0.455601
0.468563
0.481505
0.493712
0.505135
0.515682
0.525403
0.534319
0.542464
0.549884
0.556609
0.562654
0.568055
0.572836
0.577014
0.580599
0.583633
0.586105
0.588056
0.589478
0.590399
0.590836
0.590792
0.590284
0.589326
0.58794
0.586119
0.583882
0.581242
0.578214
0.574796
0.571009
0.56686
0.562355
0.557523
0.552356
0.54686
0.541071
0.534966
0.528589
0.521924
0.514999
0.507814
0.500383
0.492712
0.484823
0.476721
0.468415
0.459909
0.451233
0.442379
0.433368
0.424207
0.414915
0.405494
0.395957
0.386318
0.376582
0.366766
0.356882
0.346943
0.33695
0.326917
0.316864
0.306791
0.296719
0.286648
0.276592
0.266572
0.256586
0.246651
0.236778
0.226963
0.217238
0.207597
0.198067
0.188637
0.179332
0.17016
0.161121
0.152231
0.143502
0.134941
0.126557
0.118369
0.110373
0.102588
0.0950226
0.0876833
0.0805782
0.0737202
0.0671282
0.0608073
0.0547681
0.0490163
0.0435749
0.038442
0.0336458
0.0291729
0.0250915
0.0213719
0.0182038
0.015583
0.0139813
0.0135038
0.01493
0.0167459
0.0163917
0.0172523
0.02047
0.0269369
0.0369142
0.0503064
0.0675956
0.0892026
0.115947
0.14886
0.189068
0.237416
0.294612
0.361744
0.439435
0.528535
0.629318
0.742124
0.867435
1.00572
1.15858
1.32692
1.51322
1.71973
1.95029
2.20843
2.49994
2.83013
3.2001
3.60961
4.05808
4.53491
5.02717
5.50892
5.94719
6.28637
6.49639
6.57576
6.62804
6.75259
6.84586
6.81774
6.64618
6.36309
6.02824
5.63701
5.32714
5.0409
4.75639
4.46623
4.1511
3.78432
3.30206
2.68209
2.01463
1.39818
0.894106
0.52908
0.326856
0.301656
0.358769
0.418005
0.460442
0.48785
0.504577
0.513945
0.518478
0.519582
0.518321
0.515346
0.511013
0.505705
0.499666
0.492679
0.484713
0.475828
0.466287
0.45635
0.446313
0.436534
0.427245
0.418565
0.410885
0.404586
0.400043
0.397402
0.39714
0.39919
0.40437
0.411591
0.421585
0.428877
0.435433
0.445943
0.457351
0.469067
0.480203
0.490726
0.500438
0.509408
0.517611
0.525103
0.531893
0.53802
0.543503
0.548367
0.55263
0.556316
0.559437
0.56203
0.56408
0.565626
0.566667
0.567222
0.567311
0.566946
0.56614
0.5649
0.563238
0.561177
0.558709
0.555858
0.552631
0.549036
0.545092
0.540799
0.536171
0.531227
0.525961
0.5204
0.514543
0.508404
0.50199
0.49532
0.488389
0.481223
0.473814
0.466204
0.458366
0.450333
0.442112
0.43371
0.42514
0.41641
0.407538
0.398532
0.389386
0.380133
0.37078
0.361333
0.3518
0.342193
0.332521
0.322809
0.313045
0.303261
0.293453
0.283639
0.273827
0.264024
0.25425
0.244506
0.23481
0.225166
0.215584
0.206074
0.196648
0.187327
0.178099
0.168991
0.160009
0.151155
0.142451
0.133895
0.125505
0.1173
0.10927
0.101442
0.0938139
0.0864066
0.079237
0.0723093
0.0656416
0.0592449
0.0531514
0.0473573
0.0419084
0.0368093
0.032105
0.0278122
0.0239897
0.0206494
0.0178974
0.015718
0.0142355
0.0133786
0.0129357
0.0131033
0.0124413
0.0133067
0.0153422
0.0194854
0.0261677
0.035304
0.0473192
0.0623559
0.0810779
0.104001
0.132002
0.166106
0.207394
0.256646
0.314488
0.381922
0.459442
0.547811
0.647217
0.757982
0.880557
1.0156
1.16461
1.32855
1.50978
1.71063
1.93467
2.18501
2.46741
2.7856
3.1395
3.52767
3.94843
4.38992
4.83842
5.26727
5.64395
5.91691
6.0679
6.10957
6.1625
6.32654
6.48654
6.54114
6.45304
6.24021
5.9538
5.57411
5.27093
4.9867
4.70813
4.43473
4.14881
3.82254
3.38753
2.8079
2.16076
1.54366
1.02282
0.62832
0.374225
0.285872
0.316782
0.373752
0.41991
0.451747
0.472445
0.48512
0.492429
0.495838
0.496525
0.495204
0.492314
0.488331
0.483566
0.477854
0.471129
0.463468
0.455105
0.446308
0.437343
0.428591
0.420253
0.412418
0.405461
0.399788
0.395774
0.393574
0.39364
0.395849
0.400969
0.407666
0.416688
0.422455
0.427251
0.436101
0.445981
0.456453
0.466494
0.476084
0.48494
0.493143
0.500619
0.507437
0.513582
0.51911
0.524019
0.528336
0.532073
0.535268
0.537922
0.540053
0.541679
0.542811
0.543469
0.543663
0.543406
0.542718
0.541604
0.540077
0.538151
0.535839
0.53314
0.530073
0.526643
0.522872
0.518765
0.514335
0.509589
0.504527
0.499175
0.493541
0.487616
0.48144
0.474994
0.468312
0.461391
0.454241
0.446872
0.439307
0.431537
0.423576
0.415444
0.407147
0.398693
0.390095
0.381365
0.372504
0.363532
0.354455
0.345281
0.336029
0.326699
0.317312
0.307873
0.298391
0.288878
0.27934
0.269793
0.260248
0.250707
0.241189
0.231702
0.222259
0.21286
0.20352
0.194252
0.18507
0.175975
0.166981
0.15809
0.149334
0.140698
0.132207
0.123871
0.115707
0.10771
0.0998979
0.0923009
0.084913
0.0777602
0.0708527
0.0642272
0.0578885
0.0518817
0.0462426
0.0410039
0.03623
0.0319911
0.0283578
0.0254193
0.0232289
0.0218316
0.0211402
0.0210713
0.0213985
0.0219371
0.0225379
0.0226699
0.0227213
0.0204368
0.0196194
0.022543
0.0277917
0.0357399
0.0460359
0.0591821
0.0753464
0.0951907
0.119251
0.148398
0.183618
0.225931
0.276046
0.334494
0.402183
0.479524
0.567135
0.665149
0.773873
0.893732
1.02552
1.17068
1.33017
1.50633
1.7014
1.91884
2.1614
2.43425
2.74044
3.07792
3.44471
3.83775
4.24462
4.65025
5.02806
5.34635
5.55814
5.65562
5.66457
5.71783
5.91473
6.13223
6.26074
6.2498
6.10423
5.86634
5.50085
5.20806
4.92891
4.6582
4.40151
4.14312
3.85468
3.46452
2.92568
2.30194
1.68789
1.15386
0.735204
0.441119
0.293105
0.283348
0.331251
0.379166
0.414897
0.439419
0.455456
0.465601
0.471391
0.474086
0.474489
0.473112
0.470496
0.467027
0.462609
0.457154
0.450708
0.443534
0.435873
0.428
0.420281
0.412889
0.405903
0.399686
0.394637
0.391154
0.389374
0.389756
0.392085
0.397088
0.403243
0.411279
0.415632
0.418801
0.426039
0.434406
0.443629
0.452567
0.461197
0.469184
0.476595
0.483335
0.48946
0.49496
0.499869
0.50419
0.507954
0.511173
0.513855
0.516035
0.517703
0.518897
0.519621
0.519892
0.519717
0.519112
0.518092
0.516667
0.51485
0.512661
0.510088
0.507162
0.50388
0.500263
0.496316
0.492047
0.487468
0.482599
0.477433
0.471995
0.466279
0.460305
0.454086
0.447627
0.44093
0.434012
0.426889
0.419565
0.412041
0.404337
0.396465
0.388426
0.380245
0.371904
0.363447
0.354863
0.346163
0.337362
0.328472
0.319494
0.310447
0.301337
0.292173
0.282973
0.273731
0.264481
0.255208
0.245934
0.236672
0.227423
0.218205
0.209021
0.199897
0.190822
0.181808
0.172883
0.164049
0.155314
0.146687
0.138188
0.129817
0.121587
0.113522
0.10563
0.0979213
0.0904187
0.0831318
0.0760932
0.0693265
0.0628606
0.0567294
0.0509851
0.0456794
0.0408912
0.0367115
0.0332334
0.0305623
0.0287665
0.0278494
0.027746
0.0282888
0.0293093
0.0305887
0.0319855
0.0333336
0.0344739
0.0353647
0.0354432
0.0351829
0.0321846
0.0305042
0.0333761
0.0387659
0.0471586
0.058067
0.0719782
0.0890248
0.109817
0.134907
0.165117
0.201387
0.244672
0.295596
0.354626
0.422527
0.499639
0.586483
0.683091
0.789761
0.906935
1.03549
1.17679
1.33184
1.50292
1.69221
1.90287
2.13763
2.40077
2.69457
3.01541
3.36099
3.7268
4.09958
4.46366
4.79241
5.05561
5.21125
5.26078
5.24104
5.29385
5.5172
5.78365
5.97736
6.03714
5.9556
5.76596
5.41694
5.13796
4.86705
4.60618
4.36606
4.13374
3.88059
3.53303
3.03521
2.4376
1.83025
1.28647
0.847571
0.521867
0.324132
0.263782
0.292508
0.33888
0.377535
0.405637
0.424988
0.437989
0.446233
0.451002
0.45319
0.453385
0.452172
0.450041
0.446923
0.442749
0.437545
0.431565
0.425055
0.418282
0.411588
0.405159
0.39902
0.393542
0.38912
0.386167
0.3848
0.385467
0.38788
0.392724
0.398313
0.405366
0.408386
0.41005
0.415742
0.422623
0.430581
0.438405
0.446052
0.453159
0.45975
0.465744
0.471175
0.476017
0.480296
0.484028
0.487227
0.489907
0.492083
0.493776
0.494988
0.495742
0.49605
0.495928
0.495381
0.494421
0.493072
0.49134
0.489236
0.48677
0.483945
0.480787
0.477293
0.473484
0.469359
0.464936
0.460216
0.455218
0.449954
0.444424
0.438641
0.432618
0.426361
0.419876
0.413183
0.406275
0.399177
0.391896
0.384433
0.376806
0.369021
0.361086
0.353014
0.34481
0.336493
0.328066
0.319533
0.310914
0.302216
0.293446
0.284623
0.275741
0.26682
0.257866
0.248886
0.2399
0.230916
0.221934
0.212974
0.204049
0.195149
0.186306
0.177516
0.1688
0.160166
0.151623
0.143181
0.134857
0.126659
0.118608
0.110711
0.102992
0.0954568
0.0881383
0.0810586
0.0742451
0.0677364
0.061569
0.055797
0.0504982
0.0457434
0.0416307
0.0382704
0.0357599
0.0341673
0.0334959
0.0336749
0.0345663
0.0359914
0.0377787
0.0397526
0.0417957
0.0437755
0.0456141
0.0472164
0.0484407
0.0492851
0.0491567
0.0485748
0.0451066
0.042908
0.0456137
0.0509807
0.0596036
0.0709394
0.0854604
0.103252
0.124895
0.150937
0.182144
0.219406
0.263608
0.315299
0.374848
0.442933
0.519775
0.605813
0.701008
0.805631
0.920149
1.0455
1.18298
1.33358
1.49961
1.68315
1.88691
2.11369
2.36719
2.64818
2.95256
3.27695
3.61596
3.9555
4.27963
4.56166
4.77344
4.87761
4.88431
4.83916
4.8905
5.1342
5.4413
5.69219
5.81612
5.795
5.65281
5.3225
5.06058
4.8005
4.5512
4.32812
4.12043
3.89993
3.59298
3.13627
2.56715
1.97008
1.41998
0.963899
0.612599
0.375245
0.263389
0.260758
0.300142
0.340059
0.371234
0.393749
0.409615
0.420347
0.427262
0.43129
0.433102
0.433352
0.432592
0.430792
0.427902
0.42396
0.41918
0.413842
0.408169
0.402502
0.39703
0.391755
0.387022
0.383227
0.380793
0.379823
0.380753
0.383229
0.387874
0.392883
0.398956
0.400713
0.40097
0.405174
0.410609
0.417297
0.423986
0.430642
0.436838
0.442619
0.447842
0.452561
0.456734
0.460382
0.463508
0.466136
0.468277
0.469942
0.471134
0.47189
0.472205
0.472089
0.471566
0.470647
0.469342
0.467663
0.465616
0.463224
0.46049
0.457411
0.454025
0.450316
0.446305
0.442009
0.437429
0.432576
0.427463
0.422097
0.416483
0.410635
0.404563
0.398269
0.391772
0.385076
0.378196
0.371131
0.363894
0.356498
0.348954
0.341264
0.333446
0.325494
0.31744
0.309272
0.301003
0.292657
0.284241
0.275745
0.267198
0.258602
0.249965