/*--------------------------------*- C++ -*----------------------------------*\
| =========                 |                                                 |
| \\      /  F ield         | OpenFOAM: The Open Source CFD Toolbox           |
|  \\    /   O peration     | Version:  v2006                                 |
|   \\  /    A nd           | Website:  www.openfoam.com                      |
|    \\/     M anipulation  |                                                 |
\*---------------------------------------------------------------------------*/
FoamFile
{
    version     2.0;
    format      ascii;
    class       volScalarField;
    location    "10";
    object      T;
}
// * * * * * * * * * * * * * * * * * * * * * * * * * * * * * * * * * * * * * //

dimensions      [0 2 -2 0 0 0 0];


internalField   nonuniform List<scalar> 
40000
(
0.0122564
0.0123347
0.0124565
0.0125481
0.0125494
0.0123634
0.0118466
0.0109541
0.00989345
0.00886996
0.00794128
0.00711978
0.00640048
0.00577394
0.00523216
0.00476838
0.00437717
0.00405134
0.00377238
0.00352191
0.00329345
0.00308393
0.00289101
0.00271303
0.00254813
0.00239447
0.00225028
0.00211609
0.00199486
0.00188783
0.00179422
0.00171293
0.00164307
0.00158385
0.00153475
0.00149606
0.00146736
0.00144645
0.00143145
0.00142165
0.00141682
0.0014171
0.001423
0.00143559
0.00145734
0.0014953
0.00156432
0.00164135
0.00169535
0.00173722
0.00177322
0.00180572
0.00183584
0.00186426
0.00189134
0.00191733
0.00194236
0.00196652
0.00198987
0.00201244
0.00203427
0.00205536
0.00207573
0.0020954
0.00211438
0.00213266
0.00215028
0.00216723
0.00218354
0.00219921
0.00221426
0.0022287
0.00224255
0.00225581
0.00226852
0.00228067
0.00229228
0.00230337
0.00231394
0.00232402
0.00233362
0.00234275
0.00235142
0.00235964
0.00236743
0.00237479
0.00238175
0.00238831
0.00239448
0.00240028
0.00240571
0.00241079
0.00241552
0.00241991
0.00242399
0.00242774
0.00243119
0.00243434
0.00243719
0.00243977
0.00244207
0.0024441
0.00244587
0.00244738
0.00244865
0.00244966
0.00245044
0.00245099
0.0024513
0.00245138
0.00245124
0.00245088
0.0024503
0.00244949
0.00244847
0.00244724
0.00244578
0.00244411
0.00244222
0.00244011
0.00243779
0.00243523
0.00243246
0.00242946
0.00242622
0.00242276
0.00241905
0.00241511
0.00241092
0.00240648
0.00240179
0.00239683
0.00239161
0.00238612
0.00238034
0.00237426
0.00236788
0.00236117
0.00235411
0.00234666
0.00233877
0.00233037
0.00232137
0.00231164
0.002301
0.0022892
0.00227588
0.00226054
0.00224246
0.00222053
0.00219302
0.00215668
0.00210322
0.00201872
0.00194347
0.00190885
0.00189678
0.00189815
0.00190965
0.00193043
0.00195948
0.00199684
0.0020426
0.00209731
0.00216393
0.00224562
0.00234289
0.00245381
0.00257885
0.00271832
0.00287293
0.00304278
0.00322726
0.0034252
0.00362957
0.00383862
0.00405667
0.00428675
0.00452794
0.00478312
0.00505994
0.00535632
0.00567976
0.00605786
0.00650557
0.00702816
0.0076326
0.00832284
0.00909539
0.00994317
0.0108564
0.0117732
0.0126108
0.0131962
0.0134143
0.013372
0.0131893
0.0129258
0.0126243
0.0123534
0.0369467
0.0371432
0.0374613
0.0376919
0.0376643
0.0371038
0.0356016
0.033014
0.0299073
0.026872
0.024096
0.0216268
0.0194566
0.017561
0.0159179
0.0145081
0.0133157
0.0123196
0.0114664
0.0107021
0.0100057
0.00936741
0.00877989
0.00823804
0.00773629
0.00726911
0.00683132
0.00642419
0.00605594
0.00573031
0.00544528
0.00519765
0.00498475
0.00480421
0.00465442
0.00453601
0.00444764
0.00438311
0.00433683
0.00430659
0.00429164
0.00429233
0.00431019
0.00434852
0.00441479
0.00452925
0.00473033
0.00495362
0.00511444
0.0052403
0.00534862
0.00544647
0.00553718
0.00562277
0.00570435
0.00578264
0.00585804
0.00593083
0.00600118
0.00606919
0.00613495
0.00619851
0.0062599
0.00631917
0.00637634
0.00643145
0.00648454
0.00653564
0.00658478
0.00663201
0.00667737
0.0067209
0.00676265
0.00680264
0.00684094
0.00687758
0.00691259
0.00694603
0.00697794
0.00700835
0.0070373
0.00706483
0.00709099
0.0071158
0.00713931
0.00716155
0.00718256
0.00720237
0.00722101
0.00723852
0.00725494
0.00727028
0.00728458
0.00729788
0.00731019
0.00732155
0.00733199
0.00734153
0.00735019
0.007358
0.00736497
0.00737114
0.00737652
0.00738113
0.00738498
0.0073881
0.00739049
0.00739218
0.00739316
0.00739346
0.00739308
0.00739202
0.0073903
0.00738792
0.00738489
0.0073812
0.00737685
0.00737185
0.00736619
0.00735987
0.00735288
0.00734522
0.00733689
0.00732786
0.00731814
0.00730772
0.00729658
0.00728471
0.00727211
0.00725874
0.00724461
0.00722969
0.00721397
0.00719742
0.00718002
0.00716173
0.0071425
0.00712229
0.00710101
0.00707855
0.00705477
0.00702947
0.00700236
0.00697305
0.00694099
0.00690544
0.00686532
0.00681914
0.00676471
0.00669874
0.006616
0.00650689
0.00634818
0.00610493
0.00588742
0.00578367
0.00574705
0.00575147
0.00578697
0.00585076
0.00593992
0.00605445
0.00619479
0.00636283
0.00656716
0.00681673
0.00711283
0.00745032
0.00783047
0.0082542
0.00872348
0.00923843
0.00979712
0.0103954
0.0110136
0.0116473
0.012309
0.013007
0.0137396
0.0145158
0.0153571
0.0162593
0.0172469
0.0183989
0.0197582
0.0213404
0.0231646
0.02524
0.0275529
0.0300761
0.0327676
0.0354357
0.0378309
0.0394835
0.0401174
0.0400366
0.0395594
0.0388417
0.0380018
0.0372357
0.0619537
0.0622335
0.0627042
0.0630351
0.0629566
0.0620295
0.0595948
0.0553972
0.0503089
0.0452852
0.0406592
0.0365255
0.0328807
0.0296898
0.0269184
0.024536
0.0225167
0.0208257
0.0193769
0.0180811
0.0169014
0.0158205
0.0148261
0.0139092
0.0130605
0.0122708
0.0115315
0.0108445
0.0102225
0.00967179
0.00918947
0.00877026
0.00840974
0.00810389
0.00785001
0.00764882
0.00749799
0.0073876
0.00730847
0.00725673
0.00723104
0.00723194
0.00726196
0.00732669
0.00743862
0.0076303
0.00795861
0.00832184
0.00858868
0.00879908
0.00898042
0.00914429
0.00929627
0.0094397
0.00957642
0.00970762
0.009834
0.00995602
0.0100739
0.010188
0.0102982
0.0104048
0.0105077
0.0106071
0.010703
0.0107954
0.0108844
0.0109701
0.0110526
0.0111318
0.0112079
0.011281
0.011351
0.0114182
0.0114824
0.011544
0.0116028
0.0116589
0.0117125
0.0117636
0.0118123
0.0118586
0.0119025
0.0119443
0.0119838
0.0120212
0.0120566
0.01209
0.0121214
0.0121509
0.0121785
0.0122044
0.0122286
0.012251
0.0122718
0.012291
0.0123087
0.0123248
0.0123395
0.0123528
0.0123646
0.0123751
0.0123843
0.0123922
0.0123988
0.0124042
0.0124083
0.0124113
0.0124131
0.0124138
0.0124132
0.0124116
0.0124089
0.012405
0.0124
0.012394
0.0123868
0.0123785
0.0123691
0.0123586
0.012347
0.0123342
0.0123204
0.0123053
0.0122891
0.0122717
0.0122531
0.0122332
0.0122121
0.0121898
0.0121661
0.0121411
0.0121148
0.0120871
0.0120579
0.0120273
0.011995
0.0119612
0.0119255
0.0118878
0.0118479
0.0118055
0.01176
0.0117109
0.0116571
0.0115975
0.0115303
0.0114529
0.0113616
0.0112511
0.0111126
0.0109303
0.0106676
0.0102738
0.00992077
0.00974796
0.00968644
0.0096944
0.00975523
0.00986396
0.0100159
0.0102108
0.0104498
0.0107361
0.0110839
0.0115073
0.0120084
0.0125792
0.0132216
0.0139373
0.0147292
0.0155974
0.0165383
0.0175443
0.0185843
0.0196522
0.0207675
0.021944
0.0231796
0.0244899
0.025909
0.0274323
0.029103
0.0310476
0.0333347
0.0359894
0.0390404
0.0424984
0.0463348
0.0504946
0.0548898
0.0591965
0.0630046
0.0656149
0.066668
0.0666351
0.0659774
0.0649153
0.0636267
0.0624262
0.0872136
0.0875458
0.0881285
0.0885263
0.0883842
0.087111
0.0838092
0.0780959
0.0710978
0.0641147
0.0576392
0.0518253
0.0466826
0.0421697
0.0382426
0.0348604
0.0319878
0.0295768
0.0275101
0.0256642
0.0239853
0.0224477
0.0210335
0.0197299
0.0185237
0.0174021
0.0163533
0.015379
0.0144963
0.013714
0.0130283
0.0124322
0.0119193
0.011484
0.0111225
0.0108354
0.0106193
0.0104607
0.0103471
0.0102727
0.0102356
0.0102364
0.0102788
0.0103704
0.0105289
0.0107981
0.0112488
0.0117459
0.0121176
0.0124127
0.0126675
0.0128979
0.0131117
0.0133135
0.0135058
0.0136905
0.0138683
0.0140401
0.0142061
0.0143666
0.0145218
0.0146718
0.0148168
0.0149567
0.0150917
0.0152219
0.0153473
0.0154681
0.0155843
0.0156959
0.0158032
0.0159062
0.016005
0.0160996
0.0161903
0.0162771
0.0163601
0.0164394
0.0165151
0.0165872
0.016656
0.0167214
0.0167836
0.0168426
0.0168986
0.0169516
0.0170017
0.0170489
0.0170934
0.0171353
0.0171746
0.0172113
0.0172457
0.0172776
0.0173072
0.0173346
0.0173598
0.0173829
0.0174039
0.0174229
0.0174399
0.017455
0.0174683
0.0174797
0.0174894
0.0174972
0.0175034
0.0175079
0.0175107
0.0175119
0.0175115
0.0175095
0.0175059
0.0175007
0.0174939
0.0174856
0.0174758
0.0174643
0.0174513
0.0174368
0.0174206
0.0174028
0.0173834
0.0173624
0.0173397
0.0173153
0.0172892
0.0172614
0.0172318
0.0172005
0.0171672
0.0171321
0.0170951
0.0170561
0.0170151
0.016972
0.0169266
0.0168789
0.0168287
0.0167756
0.0167195
0.0166597
0.0165957
0.0165264
0.0164507
0.0163667
0.016272
0.016163
0.0160346
0.0158792
0.0156845
0.0154288
0.0150635
0.0145269
0.0140448
0.0138034
0.013717
0.0137291
0.0138167
0.0139725
0.0141899
0.0144687
0.0148104
0.0152203
0.0157174
0.0163209
0.0170332
0.0178442
0.0187564
0.0197718
0.0208943
0.0221236
0.0234545
0.0248753
0.0263448
0.0278554
0.0294337
0.0310981
0.032847
0.0347029
0.0367109
0.0388682
0.0412372
0.043988
0.0472124
0.0509432
0.0552155
0.0600366
0.0653574
0.0710867
0.077077
0.0828738
0.0879216
0.0913698
0.0928562
0.0929824
0.0922917
0.0910279
0.0894071
0.0878513
0.112656
0.113016
0.113675
0.114113
0.113904
0.112317
0.108225
0.1011
0.0922721
0.083365
0.0750441
0.067536
0.0608724
0.0550108
0.0498998
0.0454901
0.0417372
0.0385804
0.0358728
0.0334576
0.0312627
0.0292535
0.0274062
0.0257039
0.0241294
0.0226662
0.0212992
0.0200301
0.0188796
0.0178588
0.0169635
0.0161848
0.0155147
0.0149458
0.014473
0.0140967
0.0138123
0.0136032
0.0134533
0.0133551
0.0133058
0.0133063
0.013361
0.0134801
0.0136858
0.0140322
0.0146007
0.0152257
0.0157006
0.0160804
0.0164089
0.0167061
0.0169821
0.0172426
0.017491
0.0177295
0.0179592
0.0181811
0.0183955
0.0186029
0.0188035
0.0189974
0.0191848
0.0193657
0.0195403
0.0197086
0.0198708
0.020027
0.0201773
0.0203218
0.0204607
0.020594
0.0207219
0.0208446
0.0209621
0.0210746
0.0211822
0.021285
0.0213832
0.0214768
0.0215661
0.0216511
0.0217319
0.0218087
0.0218815
0.0219504
0.0220157
0.0220773
0.0221354
0.02219
0.0222413
0.0222894
0.0223343
0.0223761
0.022415
0.022451
0.0224841
0.0225145
0.0225422
0.0225674
0.02259
0.0226101
0.0226277
0.0226431
0.0226561
0.0226668
0.0226753
0.0226816
0.0226858
0.0226878
0.0226878
0.0226856
0.0226814
0.0226752
0.0226669
0.0226566
0.0226442
0.0226298
0.0226134
0.0225949
0.0225743
0.0225516
0.0225269
0.0224999
0.0224709
0.0224396
0.0224061
0.0223703
0.0223323
0.0222919
0.0222491
0.0222038
0.0221561
0.0221058
0.0220528
0.0219971
0.0219385
0.0218768
0.0218119
0.0217434
0.0216707
0.0215934
0.0215106
0.021421
0.0213231
0.0212145
0.021092
0.0209511
0.0207852
0.0205845
0.0203333
0.0200041
0.0195382
0.0188659
0.0182608
0.017952
0.0178407
0.0178579
0.0179738
0.0181788
0.0184647
0.0188311
0.0192799
0.0198186
0.0204712
0.0212611
0.0221912
0.0232494
0.0244387
0.0257616
0.0272226
0.0288209
0.0305493
0.0323917
0.0342978
0.0362592
0.0383088
0.0404694
0.0427405
0.0451514
0.0477574
0.0505587
0.0536374
0.0572027
0.0613665
0.0661677
0.071643
0.0777912
0.0845364
0.0917424
0.0991906
0.106302
0.112399
0.116561
0.118499
0.118909
0.118355
0.117058
0.115245
0.11343
0.138204
0.138576
0.139282
0.13974
0.139469
0.137612
0.132818
0.124395
0.113828
0.10304
0.0928822
0.083668
0.0754612
0.0682237
0.0619004
0.0564345
0.0517737
0.0478445
0.0444722
0.0414675
0.0387392
0.0362429
0.0339487
0.0318351
0.0298809
0.028066
0.0263719
0.0248001
0.0233743
0.0221081
0.0209968
0.0200298
0.0191972
0.0184903
0.0179024
0.0174336
0.017078
0.0168158
0.0166278
0.0165045
0.0164423
0.016442
0.016509
0.0166557
0.0169091
0.0173322
0.0180138
0.0187611
0.0193373
0.0198013
0.0202035
0.0205677
0.020906
0.0212256
0.0215303
0.0218229
0.0221048
0.0223771
0.0226404
0.022895
0.0231413
0.0233794
0.0236095
0.0238317
0.0240462
0.0242531
0.0244525
0.0246445
0.0248293
0.0250071
0.0251779
0.025342
0.0254995
0.0256505
0.0257953
0.0259339
0.0260666
0.0261934
0.0263146
0.0264302
0.0265405
0.0266455
0.0267454
0.0268404
0.0269305
0.027016
0.0270969
0.0271733
0.0272455
0.0273134
0.0273772
0.0274371
0.0274931
0.0275454
0.027594
0.027639
0.0276806
0.0277188
0.0277537
0.0277855
0.0278141
0.0278396
0.0278622
0.0278819
0.0278987
0.0279127
0.0279239
0.0279325
0.0279383
0.0279416
0.0279423
0.0279404
0.0279359
0.0279289
0.0279193
0.0279073
0.0278927
0.0278756
0.027856
0.0278337
0.027809
0.0277816
0.0277516
0.027719
0.0276836
0.0276456
0.0276048
0.0275611
0.0275146
0.0274652
0.0274129
0.0273575
0.027299
0.0272373
0.0271724
0.027104
0.0270321
0.0269564
0.0268766
0.0267924
0.0267032
0.0266082
0.0265063
0.0263962
0.0262759
0.0261424
0.0259919
0.0258188
0.025615
0.0253687
0.0250608
0.0246585
0.0240938
0.0232926
0.0225705
0.0221954
0.0220599
0.022083
0.0222291
0.0224857
0.0228431
0.0233008
0.0238615
0.0245346
0.0253488
0.0263315
0.0274861
0.0287988
0.0302728
0.031911
0.0337183
0.0356931
0.0378261
0.0400964
0.0424457
0.0448652
0.0473934
0.0500572
0.0528579
0.0558313
0.059042
0.0624943
0.0662899
0.0706723
0.0757706
0.0816264
0.0882741
0.0956979
0.103788
0.112355
0.121101
0.129332
0.136279
0.141033
0.143441
0.144263
0.144025
0.142881
0.141035
0.139074
0.163775
0.164152
0.164884
0.16535
0.165034
0.162959
0.157561
0.147964
0.135758
0.123142
0.111162
0.100232
0.0904605
0.0818201
0.0742552
0.0677039
0.0621064
0.0573776
0.053316
0.0497006
0.0464207
0.0434213
0.0406656
0.0381276
0.0357821
0.0336048
0.0315744
0.0296915
0.0279828
0.0264639
0.0251299
0.0239686
0.0229684
0.0221188
0.0214119
0.020847
0.0204171
0.0200994
0.0198713
0.0197215
0.0196454
0.0196438
0.019723
0.0198975
0.0201987
0.0206976
0.0214877
0.0223519
0.0230272
0.0235746
0.0240504
0.0244816
0.0248824
0.025261
0.0256223
0.0259692
0.0263035
0.0266265
0.0269388
0.0272409
0.0275331
0.0278157
0.0280889
0.0283528
0.0286075
0.0288533
0.0290902
0.0293184
0.0295381
0.0297495
0.0299527
0.030148
0.0303355
0.0305154
0.0306878
0.0308531
0.0310113
0.0311626
0.0313072
0.0314454
0.0315771
0.0317027
0.0318223
0.0319361
0.0320441
0.0321466
0.0322438
0.0323356
0.0324224
0.0325042
0.0325812
0.0326534
0.0327211
0.0327844
0.0328433
0.032898
0.0329486
0.0329952
0.0330379
0.0330767
0.0331119
0.0331435
0.0331714
0.033196
0.0332171
0.0332349
0.0332493
0.0332606
0.0332687
0.0332736
0.0332754
0.0332741
0.0332698
0.0332624
0.033252
0.0332386
0.0332221
0.0332026
0.0331801
0.0331544
0.0331257
0.0330939
0.0330589
0.0330207
0.0329793
0.0329346
0.0328866
0.0328352
0.0327803
0.032722
0.0326601
0.0325946
0.0325254
0.0324524
0.0323754
0.0322943
0.032209
0.0321192
0.0320245
0.0319244
0.0318184
0.0317055
0.0315845
0.0314537
0.0313107
0.0311521
0.0309733
0.0307677
0.0305259
0.0302337
0.0298691
0.029394
0.0287329
0.027809
0.0269755
0.0265359
0.0263768
0.0264071
0.0265851
0.0268959
0.0273281
0.0278812
0.0285585
0.0293717
0.0303539
0.0315362
0.0329221
0.0344965
0.0362628
0.0382241
0.0403854
0.0427441
0.0452883
0.0479925
0.0507909
0.0536746
0.0566876
0.0598604
0.0631964
0.0667376
0.0705573
0.0746644
0.0791796
0.0843758
0.090396
0.0972814
0.105059
0.113691
0.12303
0.132824
0.142691
0.151836
0.159433
0.164658
0.167549
0.168904
0.169166
0.168373
0.16667
0.164689
0.189281
0.189669
0.190415
0.190885
0.190546
0.188316
0.182422
0.171786
0.158054
0.143672
0.12989
0.117239
0.105883
0.0958121
0.0869759
0.079309
0.0727455
0.0671888
0.0624123
0.0581643
0.0543137
0.0507942
0.0475621
0.0445861
0.0418368
0.0392862
0.0369097
0.0347072
0.0327075
0.0309283
0.0293647
0.0280029
0.0268296
0.0258325
0.0250025
0.024338
0.0238304
0.0234545
0.0231843
0.0230065
0.0229156
0.0229122
0.0230033
0.0232056
0.0235545
0.024128
0.0250219
0.0259977
0.0267698
0.0273997
0.0279486
0.0284466
0.0289098
0.0293476
0.0297654
0.0301667
0.0305536
0.0309274
0.0312889
0.0316387
0.0319772
0.0323046
0.032621
0.0329268
0.0332221
0.0335071
0.0337819
0.0340467
0.0343017
0.0345471
0.0347831
0.03501
0.0352279
0.0354371
0.0356378
0.0358302
0.0360144
0.0361908
0.0363595
0.0365207
0.0366745
0.0368213
0.0369612
0.0370943
0.0372209
0.0373411
0.0374551
0.037563
0.0376651
0.0377614
0.0378522
0.0379375
0.0380175
0.0380924
0.0381623
0.0382274
0.0382876
0.0383433
0.0383944
0.0384411
0.0384834
0.0385216
0.0385556
0.0385856
0.0386116
0.0386338
0.0386521
0.0386666
0.0386774
0.0386845
0.038688
0.0386878
0.0386841
0.0386768
0.038666
0.0386516
0.0386336
0.038612
0.0385869
0.0385582
0.0385258
0.0384898
0.03845
0.0384065
0.0383593
0.0383081
0.0382531
0.0381941
0.038131
0.0380639
0.0379925
0.037917
0.037837
0.0377526
0.0376636
0.0375698
0.037471
0.0373669
0.0372572
0.0371412
0.0370183
0.0368874
0.036747
0.0365953
0.0364293
0.0362454
0.0360381
0.0357998
0.0355197
0.0351815
0.0347602
0.0342129
0.0334577
0.0324172
0.0314778
0.0309755
0.0307939
0.0308327
0.0310447
0.0314123
0.0319228
0.0325754
0.0333744
0.0343335
0.0354903
0.0368789
0.0385033
0.0403468
0.0424131
0.0447051
0.0472278
0.0499773
0.052939
0.0560824
0.0593351
0.0626886
0.0661913
0.0698773
0.0737524
0.0778647
0.0822948
0.0870572
0.09229
0.0982908
0.105213
0.113093
0.121945
0.131707
0.142182
0.153053
0.163852
0.173704
0.181757
0.187336
0.190715
0.192712
0.19365
0.19341
0.192034
0.190173
0.214629
0.215044
0.215802
0.216284
0.215954
0.21364
0.207365
0.195834
0.1807
0.164628
0.149073
0.1347
0.12174
0.110213
0.100075
0.0912615
0.0837016
0.077288
0.0717701
0.0668664
0.0624252
0.058368
0.0546435
0.0512153
0.0480494
0.045114
0.0423812
0.03985
0.037551
0.0355038
0.0337033
0.0321346
0.0307824
0.0296329
0.0286754
0.0279074
0.027319
0.026882
0.0265676
0.0263602
0.0262534
0.0262474
0.02635
0.02658
0.0269762
0.0276228
0.0286162
0.0296985
0.0305646
0.0312759
0.0318973
0.0324618
0.0329872
0.0334841
0.0339585
0.0344143
0.0348538
0.0352785
0.0356894
0.036087
0.0364719
0.0368442
0.0372043
0.0375523
0.0378884
0.0382129
0.0385258
0.0388276
0.0391183
0.0393981
0.0396674
0.0399264
0.0401752
0.0404143
0.0406437
0.0408637
0.0410746
0.0412766
0.0414699
0.0416548
0.0418314
0.042
0.0421608
0.0423141
0.0424599
0.0425984
0.04273
0.0428548
0.0429728
0.0430844
0.0431897
0.0432889
0.043382
0.0434693
0.043551
0.0436271
0.0436978
0.0437632
0.0438234
0.0438787
0.043929
0.0439745
0.0440152
0.0440514
0.044083
0.0441101
0.0441329
0.0441513
0.0441654
0.0441753
0.044181
0.0441826
0.04418
0.0441733
0.0441625
0.0441476
0.0441285
0.0441054
0.0440781
0.0440466
0.0440109
0.043971
0.0439268
0.0438783
0.0438254
0.043768
0.0437061
0.0436397
0.0435685
0.0434927
0.043412
0.0433264
0.0432358
0.04314
0.043039
0.0429324
0.0428201
0.0427017
0.0425768
0.0424448
0.0423048
0.0421557
0.0419958
0.0418229
0.0416339
0.0414244
0.0411883
0.0409172
0.0405986
0.0402143
0.0397364
0.0391177
0.0382709
0.0371193
0.0360793
0.0355166
0.0353137
0.0353625
0.0356108
0.0360381
0.0366304
0.037387
0.0383128
0.039424
0.040762
0.042364
0.0442339
0.046354
0.0487277
0.051358
0.0542494
0.0573964
0.0607813
0.0643685
0.06808
0.0719074
0.0759036
0.0801056
0.0845218
0.0892059
0.0942452
0.0996596
0.105603
0.112393
0.120189
0.12902
0.138882
0.149681
0.161169
0.172956
0.184494
0.194843
0.203169
0.208993
0.212852
0.215582
0.217358
0.217869
0.217013
0.215421
0.23972
0.240192
0.240972
0.241482
0.241202
0.238882
0.232349
0.220077
0.20368
0.186005
0.168717
0.152626
0.138047
0.125036
0.113566
0.103574
0.0949869
0.0876864
0.0813994
0.0758161
0.0707632
0.0661498
0.0619165
0.0580212
0.0544254
0.0510931
0.0479934
0.0451239
0.0425169
0.0401935
0.0381486
0.0363661
0.034829
0.0335216
0.032432
0.0315564
0.0308836
0.0303826
0.0300217
0.0297831
0.0296591
0.0296498
0.0297634
0.0300207
0.0304637
0.0311815
0.03227
0.0334538
0.0344113
0.0352026
0.0358957
0.0365263
0.0371137
0.0376695
0.0382004
0.0387106
0.0392027
0.0396784
0.0401388
0.0405844
0.0410158
0.0414332
0.0418371
0.0422275
0.0426048
0.0429691
0.0433206
0.0436597
0.0439864
0.0443012
0.0446042
0.0448957
0.0451761
0.0454455
0.0457042
0.0459525
0.0461906
0.0464189
0.0466375
0.0468468
0.0470469
0.0472381
0.0474206
0.0475946
0.0477604
0.0479182
0.0480682
0.0482105
0.0483454
0.0484731
0.0485938
0.0487076
0.0488147
0.0489152
0.0490094
0.0490974
0.0491794
0.0492554
0.0493256
0.0493902
0.0494492
0.0495029
0.0495511
0.0495942
0.0496322
0.049665
0.0496929
0.0497159
0.0497341
0.0497474
0.049756
0.0497599
0.049759
0.0497534
0.0497432
0.0497283
0.0497087
0.0496844
0.0496554
0.0496216
0.049583
0.0495395
0.0494912
0.0494379
0.0493797
0.0493163
0.0492478
0.0491741
0.049095
0.0490106
0.0489207
0.0488251
0.0487239
0.0486168
0.0485036
0.0483843
0.0482584
0.0481256
0.0479855
0.0478373
0.0476801
0.0475127
0.0473331
0.0471389
0.0469266
0.0466913
0.0464263
0.046122
0.0457648
0.0453345
0.0448002
0.044111
0.0431751
0.0419179
0.0407823
0.0401616
0.0399389
0.0399995
0.0402863
0.0407764
0.0414544
0.0423195
0.0433776
0.0446471
0.0461731
0.0479954
0.0501181
0.0525224
0.0552113
0.0581874
0.0614546
0.0650055
0.068819
0.0728544
0.0770289
0.0813341
0.0858267
0.0905468
0.0955053
0.100761
0.106407
0.112469
0.119115
0.126676
0.135313
0.145044
0.155839
0.167564
0.179916
0.192451
0.204534
0.215183
0.223611
0.229573
0.233894
0.237423
0.240181
0.24163
0.241487
0.240323
0.264453
0.265026
0.26585
0.266412
0.266232
0.263991
0.25733
0.244478
0.22697
0.207796
0.188825
0.171027
0.154815
0.140296
0.127463
0.116261
0.106614
0.0983956
0.0913112
0.085023
0.0793365
0.0741475
0.0693881
0.0650101
0.0609702
0.0572286
0.0537507
0.050533
0.0476088
0.0450006
0.0427035
0.0407
0.0389716
0.0375009
0.0362741
0.0352865
0.0345254
0.0339572
0.0335473
0.0332756
0.0331332
0.0331196
0.0332436
0.0335276
0.0340165
0.0348036
0.0359829
0.0372636
0.0383096
0.0391793
0.0399434
0.0406394
0.0412884
0.0419028
0.04249
0.0430546
0.0435993
0.0441261
0.0446359
0.0451296
0.0456077
0.0460705
0.0465184
0.0469515
0.0473702
0.0477746
0.0481651
0.0485419
0.0489052
0.0492553
0.0495925
0.0499172
0.0502295
0.0505299
0.0508185
0.0510957
0.0513618
0.0516171
0.0518618
0.0520962
0.0523205
0.052535
0.05274
0.0529358
0.0531224
0.0533003
0.0534695
0.0536303
0.053783
0.0539277
0.0540646
0.054194
0.0543159
0.0544307
0.0545384
0.0546392
0.0547333
0.0548208
0.054902
0.0549768
0.0550454
0.055108
0.0551647
0.0552155
0.0552606
0.0553
0.0553339
0.0553622
0.0553851
0.0554026
0.0554147
0.0554215
0.055423
0.0554193
0.0554102
0.0553958
0.0553762
0.0553512
0.0553209
0.0552853
0.0552442
0.0551976
0.0551455
0.0550878
0.0550245
0.0549554
0.0548805
0.0547997
0.0547129
0.05462
0.0545209
0.0544155
0.0543037
0.0541853
0.0540601
0.0539279
0.0537884
0.0536411
0.0534857
0.0533212
0.0531467
0.0529607
0.0527612
0.0525455
0.0523097
0.0520484
0.0517543
0.0514168
0.0510209
0.0505445
0.0499542
0.0491955
0.0481733
0.0468155
0.0455892
0.0449131
0.0446724
0.0447467
0.0450746
0.0456306
0.0463984
0.0473767
0.0485726
0.0500068
0.0517278
0.0537777
0.0561606
0.0588566
0.0618683
0.0651977
0.0688476
0.0728085
0.0770557
0.0815436
0.0861846
0.0909708
0.0959624
0.101202
0.106703
0.11253
0.11878
0.125483
0.13282
0.141131
0.150576
0.161151
0.172799
0.185337
0.198404
0.211493
0.223909
0.234671
0.243045
0.249046
0.253792
0.258163
0.262021
0.264581
0.265339
0.264766
0.288723
0.289453
0.290354
0.291006
0.290982
0.288912
0.282258
0.268997
0.250541
0.229989
0.2094
0.189914
0.17206
0.156008
0.141782
0.129337
0.118597
0.109428
0.101517
0.0944973
0.0881543
0.0823694
0.0770656
0.0721885
0.06769
0.0635257
0.0596579
0.0560815
0.0528304
0.0499286
0.047371
0.0451392
0.0432128
0.0415727
0.0402036
0.0390994
0.0382458
0.0376069
0.0371451
0.0368384
0.0366761
0.0366572
0.0367908
0.0371007
0.0376346
0.0384888
0.0397546
0.0411275
0.0422592
0.0432057
0.0440397
0.0448005
0.0455107
0.0461835
0.0468268
0.0474456
0.0480428
0.0486206
0.04918
0.0497218
0.0502468
0.0507551
0.0512472
0.0517233
0.0521838
0.0526287
0.0530585
0.0534734
0.0538737
0.0542597
0.0546317
0.05499
0.055335
0.055667
0.0559863
0.0562932
0.056588
0.056871
0.0571425
0.0574029
0.0576523
0.0578911
0.0581195
0.0583378
0.0585463
0.0587451
0.0589346
0.0591149
0.0592863
0.059449
0.0596032
0.0597491
0.0598869
0.0600168
0.060139
0.0602537
0.0603609
0.0604609
0.0605539
0.0606399
0.0607191
0.0607916
0.0608575
0.060917
0.0609701
0.061017
0.0610576
0.0610921
0.0611206
0.061143
0.0611594
0.0611699
0.0611744
0.0611731
0.0611658
0.0611526
0.0611335
0.0611084
0.0610774
0.0610403
0.0609971
0.0609478
0.0608923
0.0608305
0.0607624
0.0606878
0.0606068
0.0605191
0.0604247
0.0603236
0.0602154
0.0601003
0.0599779
0.0598482
0.0597109
0.0595659
0.0594126
0.0592509
0.0590799
0.058899
0.058707
0.0585023
0.0582827
0.0580453
0.0577858
0.0574984
0.057175
0.0568041
0.0563694
0.0558471
0.0552013
0.0543743
0.0532683
0.0518148
0.0505026
0.049774
0.0495171
0.0496073
0.0499789
0.0506044
0.0514659
0.0525625
0.053902
0.0555075
0.0574304
0.0597153
0.0623659
0.0653612
0.0687033
0.0723932
0.0764325
0.0808092
0.0854949
0.0904389
0.0955495
0.100819
0.106312
0.112071
0.118115
0.12451
0.131358
0.138696
0.14671
0.155749
0.165961
0.177324
0.18974
0.202978
0.21661
0.230068
0.2426
0.253271
0.261452
0.267395
0.272519
0.277746
0.282793
0.286615
0.288454
0.288636
0.312424
0.31338
0.314404
0.315193
0.315389
0.313586
0.307078
0.293584
0.274362
0.252571
0.230441
0.209294
0.189795
0.172189
0.156539
0.142817
0.130949
0.120798
0.112028
0.10425
0.0972263
0.0908241
0.0849569
0.0795637
0.074591
0.0699902
0.06572
0.0617738
0.0581858
0.054981
0.0521543
0.0496863
0.0475549
0.0457392
0.0442223
0.0429967
0.0420464
0.041333
0.0408163
0.040472
0.0402882
0.0402627
0.040405
0.04074
0.0413176
0.0422365
0.0435847
0.0450455
0.04626
0.0472815
0.0481843
0.0490093
0.0497802
0.0505109
0.0512101
0.051883
0.0525327
0.0531614
0.0537704
0.0543606
0.0549325
0.0554866
0.0560231
0.0565426
0.0570451
0.057531
0.0580005
0.058454
0.0588919
0.0593143
0.0597217
0.0601144
0.0604927
0.060857
0.0612077
0.061545
0.0618693
0.062181
0.0624802
0.0627674
0.0630429
0.0633069
0.0635597
0.0638016
0.0640328
0.0642537
0.0644645
0.0646653
0.0648565
0.0650383
0.0652108
0.0653744
0.0655291
0.0656753
0.0658131
0.0659426
0.0660641
0.0661776
0.0662835
0.0663817
0.0664724
0.0665559
0.0666321
0.0667012
0.0667633
0.0668184
0.0668667
0.0669082
0.0669431
0.0669712
0.0669927
0.0670076
0.0670159
0.0670177
0.0670129
0.0670015
0.0669835
0.0669588
0.0669275
0.0668895
0.0668447
0.0667931
0.0667345
0.066669
0.0665964
0.0665167
0.0664297
0.0663354
0.0662336
0.0661242
0.0660072
0.0658823
0.0657495
0.0656085
0.0654591
0.0653011
0.0651341
0.0649577
0.0647711
0.0645736
0.0643639
0.0641403
0.0639005
0.0636412
0.0633578
0.063044
0.0626911
0.0622867
0.0618132
0.0612452
0.0605443
0.0596503
0.0584633
0.0569188
0.0555253
0.0547471
0.0544763
0.0545846
0.0550029
0.0557013
0.056661
0.057881
0.05937
0.0611534
0.0632855
0.0658127
0.0687385
0.0720408
0.0757207
0.0797782
0.0842133
0.0890112
0.0941396
0.0995428
0.105126
0.110881
0.116875
0.123154
0.129738
0.136698
0.144138
0.1521
0.160776
0.170515
0.181453
0.193541
0.20664
0.220462
0.234512
0.248158
0.260606
0.270978
0.278831
0.284623
0.290061
0.296131
0.302424
0.307634
0.31072
0.311819
0.335448
0.336711
0.337916
0.338898
0.339386
0.337951
0.331732
0.318187
0.298399
0.275525
0.251945
0.229176
0.208033
0.188853
0.171749
0.156716
0.143687
0.132518
0.122858
0.114293
0.106563
0.0995211
0.0930704
0.0871429
0.0816798
0.0766279
0.0719425
0.0676147
0.0636792
0.0601615
0.0570568
0.0543444
0.0520007
0.0500028
0.0483323
0.0469801
0.0459285
0.0451367
0.0445618
0.0441773
0.04397
0.0439367
0.0440865
0.0444455
0.0450652
0.0460464
0.0474731
0.0490175
0.0503119
0.0514067
0.0523771
0.0532655
0.0540965
0.0548849
0.0556398
0.0563665
0.0570687
0.0577484
0.0584071
0.0590456
0.0596647
0.0602647
0.0608461
0.0614092
0.0619542
0.0624814
0.0629912
0.0634839
0.0639598
0.0644193
0.0648628
0.0652905
0.065703
0.0661004
0.0664833
0.0668519
0.0672067
0.0675479
0.0678758
0.0681909
0.0684934
0.0687836
0.0690619
0.0693285
0.0695836
0.0698277
0.0700608
0.0702833
0.0704954
0.0706974
0.0708895
0.0710719
0.0712447
0.0714083
0.0715628
0.0717083
0.0718451
0.0719734
0.0720932
0.0722047
0.0723081
0.0724035
0.072491
0.0725708
0.0726428
0.0727072
0.0727641
0.0728136
0.0728557
0.0728904
0.0729178
0.0729379
0.0729507
0.0729563
0.0729546
0.0729456
0.0729293
0.0729057
0.0728747
0.0728362
0.0727902
0.0727367
0.0726755
0.0726066
0.0725299
0.0724452
0.0723526
0.0722518
0.0721427
0.0720253
0.0718994
0.0717649
0.0716216
0.0714693
0.0713078
0.0711368
0.0709559
0.0707646
0.0705624
0.0703481
0.0701205
0.0698778
0.0696175
0.0693361
0.0690286
0.0686883
0.0683057
0.0678677
0.0673554
0.0667418
0.0659865
0.0650268
0.0637617
0.0621306
0.0606603
0.0598356
0.0595532
0.0596822
0.0601501
0.0609253
0.0619876
0.0633362
0.064981
0.0669491
0.0692977
0.0720747
0.0752833
0.0788999
0.082925
0.0873569
0.0921938
0.0974178
0.102992
0.108857
0.114914
0.121156
0.127651
0.134449
0.141569
0.149088
0.157113
0.165686
0.175005
0.185413
0.197031
0.209779
0.223472
0.237761
0.252084
0.265749
0.277928
0.287821
0.295191
0.300746
0.306419
0.313293
0.320856
0.327551
0.332031
0.334202
0.35769
0.359349
0.360805
0.362045
0.362904
0.361942
0.356158
0.34275
0.322612
0.298828
0.273908
0.249566
0.226787
0.206017
0.187431
0.171053
0.156826
0.144604
0.134021
0.124638
0.116176
0.10847
0.101415
0.0949344
0.0889638
0.0834455
0.078331
0.0736094
0.0693151
0.0654743
0.062082
0.0591166
0.0565528
0.0543659
0.0525358
0.0510515
0.0498939
0.0490195
0.0483828
0.0479553
0.0477221
0.0476794
0.0478354
0.0482171
0.0488775
0.0499183
0.0514195
0.0530436
0.054415
0.0555813
0.0566183
0.0575692
0.0584599
0.0593056
0.0601158
0.0608964
0.0616509
0.0623816
0.0630901
0.0637772
0.0644437
0.06509
0.0657165
0.0663236
0.0669115
0.0674806
0.0680313
0.0685637
0.0690784
0.0695757
0.070056
0.0705196
0.070967
0.0713985
0.0718145
0.0722154
0.0726015
0.0729733
0.073331
0.073675
0.0740057
0.0743233
0.0746281
0.0749205
0.0752008
0.0754692
0.0757259
0.0759713
0.0762056
0.0764291
0.0766419
0.0768443
0.0770365
0.0772187
0.0773911
0.0775539
0.0777072
0.0778513
0.0779863
0.0781123
0.0782294
0.0783379
0.0784378
0.0785292
0.0786122
0.0786869
0.0787534
0.0788117
0.0788619
0.0789041
0.0789382
0.0789643
0.0789825
0.0789926
0.0789947
0.0789888
0.0789748
0.0789528
0.0789226
0.0788841
0.0788375
0.0787824
0.078719
0.078647
0.0785664
0.0784771
0.0783789
0.0782718
0.0781557
0.0780303
0.0778957
0.0777515
0.0775977
0.0774341
0.0772604
0.0770763
0.0768814
0.0766752
0.076457
0.0762257
0.0759801
0.0757181
0.075437
0.0751332
0.0748014
0.0744343
0.0740219