/*--------------------------------*- C++ -*----------------------------------*\
| =========                 |                                                 |
| \\      /  F ield         | OpenFOAM: The Open Source CFD Toolbox           |
|  \\    /   O peration     | Version:  v2006                                 |
|   \\  /    A nd           | Website:  www.openfoam.com                      |
|    \\/     M anipulation  |                                                 |
\*---------------------------------------------------------------------------*/
FoamFile
{
    version     2.0;
    format      ascii;
    class       volScalarField;
    location    "10";
    object      V;
}
// * * * * * * * * * * * * * * * * * * * * * * * * * * * * * * * * * * * * * //

dimensions      [0 3 0 0 0 0 0];


internalField   nonuniform List<scalar> 
40000
(
1.05177e-05
1.0517e-05
1.05147e-05
1.04956e-05
1.04286e-05
1.02784e-05
1.00175e-05
9.68571e-06
9.3956e-06
9.17248e-06
9.03315e-06
8.95431e-06
8.9392e-06
8.97437e-06
9.05564e-06
9.18407e-06
9.3568e-06
9.56367e-06
9.77285e-06
9.97479e-06
1.01699e-05
1.03586e-05
1.0541e-05
1.07159e-05
1.0884e-05
1.10446e-05
1.11992e-05
1.13624e-05
1.15451e-05
1.17491e-05
1.19752e-05
1.2221e-05
1.24926e-05
1.2783e-05
1.30966e-05
1.34317e-05
1.37697e-05
1.40991e-05
1.44137e-05
1.47082e-05
1.49762e-05
1.52118e-05
1.54076e-05
1.55576e-05
1.56561e-05
1.56985e-05
1.56891e-05
1.56855e-05
1.56855e-05
1.56855e-05
1.56855e-05
1.56855e-05
1.56855e-05
1.56855e-05
1.56855e-05
1.56855e-05
1.56855e-05
1.56855e-05
1.56855e-05
1.56855e-05
1.56855e-05
1.56855e-05
1.56855e-05
1.56855e-05
1.56855e-05
1.56855e-05
1.56855e-05
1.56855e-05
1.56855e-05
1.56855e-05
1.56855e-05
1.56855e-05
1.56855e-05
1.56855e-05
1.56855e-05
1.56855e-05
1.56855e-05
1.56855e-05
1.56855e-05
1.56855e-05
1.56853e-05
1.56847e-05
1.56863e-05
1.56849e-05
1.56853e-05
1.56864e-05
1.56855e-05
1.56847e-05
1.56857e-05
1.56862e-05
1.56845e-05
1.56854e-05
1.56864e-05
1.56847e-05
1.56858e-05
1.56864e-05
1.56852e-05
1.56848e-05
1.56862e-05
1.56849e-05
1.56849e-05
1.56862e-05
1.56848e-05
1.56852e-05
1.56864e-05
1.56858e-05
1.56847e-05
1.56864e-05
1.56854e-05
1.56845e-05
1.56862e-05
1.56857e-05
1.56847e-05
1.56855e-05
1.56864e-05
1.56853e-05
1.56849e-05
1.56863e-05
1.56847e-05
1.56848e-05
1.56864e-05
1.56847e-05
1.5685e-05
1.56864e-05
1.56849e-05
1.56854e-05
1.56865e-05
1.56854e-05
1.56846e-05
1.56861e-05
1.56859e-05
1.56849e-05
1.5686e-05
1.5685e-05
1.56846e-05
1.56862e-05
1.56863e-05
1.56848e-05
1.56847e-05
1.56864e-05
1.56847e-05
1.56854e-05
1.56862e-05
1.56845e-05
1.56854e-05
1.56865e-05
1.56853e-05
1.56848e-05
1.56867e-05
1.56853e-05
1.56847e-05
1.56861e-05
1.56852e-05
1.56883e-05
1.56992e-05
1.5657e-05
1.55558e-05
1.54088e-05
1.52121e-05
1.4975e-05
1.47094e-05
1.44118e-05
1.41011e-05
1.37692e-05
1.34326e-05
1.30941e-05
1.27831e-05
1.24937e-05
1.22209e-05
1.19763e-05
1.17477e-05
1.15466e-05
1.13623e-05
1.11976e-05
1.10472e-05
1.08836e-05
1.07142e-05
1.05392e-05
1.03625e-05
1.01681e-05
9.97305e-06
9.77629e-06
9.56249e-06
9.355e-06
9.18728e-06
9.05508e-06
8.97326e-06
8.93719e-06
8.9571e-06
9.0322e-06
9.17141e-06
9.397e-06
9.68571e-06
1.00169e-05
1.0279e-05
1.0428e-05
1.04961e-05
1.05143e-05
1.05165e-05
1.05183e-05
1.06887e-05
1.0688e-05
1.06857e-05
1.06663e-05
1.05984e-05
1.04461e-05
1.01816e-05
9.8453e-06
9.55125e-06
9.32519e-06
9.18414e-06
9.10445e-06
9.08942e-06
9.12541e-06
9.20815e-06
9.33873e-06
9.51425e-06
9.72439e-06
9.93688e-06
1.0142e-05
1.03402e-05
1.0532e-05
1.07172e-05
1.0895e-05
1.10657e-05
1.1229e-05
1.1386e-05
1.15519e-05
1.17374e-05
1.19447e-05
1.21744e-05
1.24239e-05
1.26997e-05
1.29945e-05
1.33129e-05
1.3653e-05
1.39961e-05
1.43304e-05
1.46497e-05
1.49486e-05
1.52206e-05
1.54597e-05
1.56585e-05
1.58107e-05
1.59107e-05
1.59537e-05
1.59442e-05
1.59405e-05
1.59405e-05
1.59405e-05
1.59405e-05
1.59405e-05
1.59405e-05
1.59405e-05
1.59405e-05
1.59405e-05
1.59405e-05
1.59405e-05
1.59405e-05
1.59405e-05
1.59405e-05
1.59405e-05
1.59405e-05
1.59405e-05
1.59405e-05
1.59405e-05
1.59405e-05
1.59405e-05
1.59405e-05
1.59405e-05
1.59405e-05
1.59405e-05
1.59405e-05
1.59405e-05
1.59405e-05
1.59405e-05
1.59405e-05
1.59405e-05
1.59405e-05
1.59405e-05
1.59404e-05
1.59398e-05
1.59414e-05
1.594e-05
1.59403e-05
1.59415e-05
1.59406e-05
1.59398e-05
1.59407e-05
1.59413e-05
1.59395e-05
1.59404e-05
1.59414e-05
1.59397e-05
1.59408e-05
1.59415e-05
1.59402e-05
1.59398e-05
1.59412e-05
1.59399e-05
1.59399e-05
1.59412e-05
1.59398e-05
1.59402e-05
1.59415e-05
1.59408e-05
1.59397e-05
1.59414e-05
1.59404e-05
1.59395e-05
1.59413e-05
1.59407e-05
1.59398e-05
1.59406e-05
1.59415e-05
1.59403e-05
1.594e-05
1.59414e-05
1.59398e-05
1.59398e-05
1.59414e-05
1.59397e-05
1.59401e-05
1.59414e-05
1.59399e-05
1.59404e-05
1.59415e-05
1.59404e-05
1.59396e-05
1.59412e-05
1.59409e-05
1.59399e-05
1.59411e-05
1.594e-05
1.59397e-05
1.59413e-05
1.59414e-05
1.59399e-05
1.59397e-05
1.59415e-05
1.59397e-05
1.59404e-05
1.59413e-05
1.59396e-05
1.59404e-05
1.59415e-05
1.59403e-05
1.59398e-05
1.59418e-05
1.59403e-05
1.59398e-05
1.59412e-05
1.59402e-05
1.59434e-05
1.59544e-05
1.59116e-05
1.58089e-05
1.56597e-05
1.546e-05
1.52194e-05
1.49498e-05
1.46478e-05
1.43324e-05
1.39956e-05
1.3654e-05
1.33104e-05
1.29946e-05
1.27008e-05
1.24239e-05
1.21754e-05
1.19432e-05
1.17391e-05
1.15517e-05
1.13845e-05
1.12315e-05
1.10654e-05
1.08932e-05
1.07154e-05
1.05358e-05
1.03384e-05
1.01403e-05
9.94037e-06
9.7232e-06
9.51242e-06
9.34198e-06
9.20757e-06
9.12428e-06
9.08739e-06
9.10728e-06
9.18317e-06
9.3241e-06
9.55267e-06
9.8453e-06
1.01811e-05
1.04467e-05
1.05978e-05
1.06669e-05
1.06853e-05
1.06875e-05
1.06893e-05
1.08625e-05
1.08618e-05
1.08594e-05
1.08398e-05
1.0771e-05
1.06166e-05
1.03485e-05
1.00075e-05
9.70951e-06
9.48048e-06
9.33769e-06
9.25717e-06
9.24223e-06
9.27905e-06
9.36329e-06
9.49606e-06
9.67441e-06
9.88787e-06
1.01037e-05
1.03121e-05
1.05134e-05
1.07082e-05
1.08964e-05
1.10771e-05
1.12506e-05
1.14164e-05
1.1576e-05
1.17446e-05
1.19331e-05
1.21436e-05
1.23768e-05
1.26303e-05
1.29103e-05
1.32096e-05
1.35327e-05
1.3878e-05
1.42262e-05
1.45655e-05
1.48896e-05
1.51929e-05
1.5469e-05
1.57117e-05
1.59134e-05
1.60679e-05
1.61693e-05
1.6213e-05
1.62034e-05
1.61997e-05
1.61997e-05
1.61996e-05
1.61997e-05
1.61997e-05
1.61997e-05
1.61996e-05
1.61997e-05
1.61997e-05
1.61997e-05
1.61997e-05
1.61997e-05
1.61997e-05
1.61997e-05
1.61996e-05
1.61997e-05
1.61997e-05
1.61997e-05
1.61996e-05
1.61997e-05
1.61997e-05
1.61997e-05
1.61997e-05
1.61997e-05
1.61997e-05
1.61997e-05
1.61997e-05
1.61997e-05
1.61997e-05
1.61997e-05
1.61997e-05
1.61997e-05
1.61997e-05
1.61995e-05
1.61989e-05
1.62005e-05
1.61991e-05
1.61994e-05
1.62007e-05
1.61997e-05
1.61989e-05
1.61999e-05
1.62004e-05
1.61987e-05
1.61996e-05
1.62006e-05
1.61988e-05
1.62e-05
1.62006e-05
1.61993e-05
1.6199e-05
1.62004e-05
1.61991e-05
1.61991e-05
1.62004e-05
1.6199e-05
1.61993e-05
1.62006e-05
1.62e-05
1.61988e-05
1.62006e-05
1.61996e-05
1.61987e-05
1.62004e-05
1.61999e-05
1.61989e-05
1.61997e-05
1.62007e-05
1.61994e-05
1.61991e-05
1.62005e-05
1.61989e-05
1.6199e-05
1.62006e-05
1.61989e-05
1.61992e-05
1.62006e-05
1.61991e-05
1.61996e-05
1.62007e-05
1.61995e-05
1.61987e-05
1.62003e-05
1.62001e-05
1.61991e-05
1.62002e-05
1.61992e-05
1.61988e-05
1.62004e-05
1.62006e-05
1.6199e-05
1.61989e-05
1.62007e-05
1.61989e-05
1.61996e-05
1.62005e-05
1.61987e-05
1.61996e-05
1.62007e-05
1.61994e-05
1.61989e-05
1.6201e-05
1.61995e-05
1.61989e-05
1.62003e-05
1.61993e-05
1.62025e-05
1.62137e-05
1.61703e-05
1.6066e-05
1.59146e-05
1.5712e-05
1.54677e-05
1.51942e-05
1.48876e-05
1.45675e-05
1.42257e-05
1.38789e-05
1.35302e-05
1.32097e-05
1.29113e-05
1.26302e-05
1.23779e-05
1.21421e-05
1.19347e-05
1.17444e-05
1.15745e-05
1.1419e-05
1.12502e-05
1.10753e-05
1.08947e-05
1.07122e-05
1.05116e-05
1.03103e-05
1.01073e-05
9.88667e-06
9.67256e-06
9.49936e-06
9.36271e-06
9.2779e-06
9.24017e-06
9.26004e-06
9.33671e-06
9.47938e-06
9.71095e-06
1.00075e-05
1.03479e-05
1.06172e-05
1.07704e-05
1.08404e-05
1.0859e-05
1.08612e-05
1.08631e-05
1.10391e-05
1.10383e-05
1.1036e-05
1.10161e-05
1.09463e-05
1.07899e-05
1.05181e-05
1.01725e-05
9.87042e-06
9.63839e-06
9.49387e-06
9.4125e-06
9.39767e-06
9.43534e-06
9.52111e-06
9.65611e-06
9.83734e-06
1.00542e-05
1.02734e-05
1.04851e-05
1.06896e-05
1.08875e-05
1.10787e-05
1.12622e-05
1.14385e-05
1.16071e-05
1.17693e-05
1.19406e-05
1.2132e-05
1.23458e-05
1.25827e-05
1.28401e-05
1.31244e-05
1.34282e-05
1.37562e-05
1.41067e-05
1.44601e-05
1.48045e-05
1.51334e-05
1.54412e-05
1.57214e-05
1.59677e-05
1.61724e-05
1.63292e-05
1.64322e-05
1.64765e-05
1.64668e-05
1.6463e-05
1.6463e-05
1.6463e-05
1.6463e-05
1.6463e-05
1.6463e-05
1.6463e-05
1.6463e-05
1.6463e-05
1.6463e-05
1.6463e-05
1.6463e-05
1.6463e-05
1.6463e-05
1.6463e-05
1.6463e-05
1.6463e-05
1.6463e-05
1.6463e-05
1.6463e-05
1.6463e-05
1.6463e-05
1.6463e-05
1.6463e-05
1.6463e-05
1.6463e-05
1.6463e-05
1.6463e-05
1.6463e-05
1.6463e-05
1.6463e-05
1.6463e-05
1.6463e-05
1.64629e-05
1.64622e-05
1.64639e-05
1.64624e-05
1.64628e-05
1.6464e-05
1.6463e-05
1.64622e-05
1.64632e-05
1.64638e-05
1.6462e-05
1.64629e-05
1.64639e-05
1.64621e-05
1.64633e-05
1.6464e-05
1.64627e-05
1.64623e-05
1.64637e-05
1.64624e-05
1.64624e-05
1.64637e-05
1.64623e-05
1.64627e-05
1.6464e-05
1.64633e-05
1.64621e-05
1.64639e-05
1.64629e-05
1.6462e-05
1.64638e-05
1.64632e-05
1.64622e-05
1.6463e-05
1.6464e-05
1.64628e-05
1.64624e-05
1.64639e-05
1.64622e-05
1.64623e-05
1.64639e-05
1.64622e-05
1.64625e-05
1.6464e-05
1.64624e-05
1.64629e-05
1.6464e-05
1.64629e-05
1.64621e-05
1.64637e-05
1.64634e-05
1.64624e-05
1.64636e-05
1.64625e-05
1.64621e-05
1.64638e-05
1.64639e-05
1.64623e-05
1.64622e-05
1.6464e-05
1.64622e-05
1.64629e-05
1.64638e-05
1.6462e-05
1.64629e-05
1.6464e-05
1.64628e-05
1.64622e-05
1.64643e-05
1.64628e-05
1.64622e-05
1.64637e-05
1.64627e-05
1.64659e-05
1.64772e-05
1.64331e-05
1.63273e-05
1.61737e-05
1.5968e-05
1.57201e-05
1.54425e-05
1.51314e-05
1.48065e-05
1.44596e-05
1.41077e-05
1.37537e-05
1.34283e-05
1.31254e-05
1.284e-05
1.25838e-05
1.23444e-05
1.21337e-05
1.19404e-05
1.17677e-05
1.16097e-05
1.14382e-05
1.12604e-05
1.10769e-05
1.08915e-05
1.06878e-05
1.04833e-05
1.0277e-05
1.00529e-05
9.83545e-06
9.65946e-06
9.52052e-06
9.43418e-06
9.39558e-06
9.41542e-06
9.49287e-06
9.63728e-06
9.87189e-06
1.01724e-05
1.05175e-05
1.07905e-05
1.09457e-05
1.10167e-05
1.10355e-05
1.10378e-05
1.10397e-05
1.12185e-05
1.12177e-05
1.12153e-05
1.11952e-05
1.11245e-05
1.0966e-05
1.06904e-05
1.03401e-05
1.0034e-05
9.79898e-06
9.65271e-06
9.5705e-06
9.55579e-06
9.59433e-06
9.68167e-06
9.81893e-06
1.00031e-05
1.02233e-05
1.0446e-05
1.06611e-05
1.08688e-05
1.10699e-05
1.12641e-05
1.14506e-05
1.16297e-05
1.1801e-05
1.19658e-05
1.21399e-05
1.23344e-05
1.25515e-05
1.27921e-05
1.30534e-05
1.3342e-05
1.36505e-05
1.39835e-05
1.43392e-05
1.46979e-05
1.50474e-05
1.53812e-05
1.56936e-05
1.59779e-05
1.62279e-05
1.64356e-05
1.65947e-05
1.66992e-05
1.67443e-05
1.67344e-05
1.67306e-05
1.67306e-05
1.67305e-05
1.67306e-05
1.67306e-05
1.67306e-05
1.67305e-05
1.67306e-05
1.67306e-05
1.67306e-05
1.67305e-05
1.67306e-05
1.67306e-05
1.67306e-05
1.67305e-05
1.67306e-05
1.67306e-05
1.67306e-05
1.67305e-05
1.67306e-05
1.67306e-05
1.67306e-05
1.67306e-05
1.67306e-05
1.67306e-05
1.67306e-05
1.67306e-05
1.67306e-05
1.67306e-05
1.67306e-05
1.67306e-05
1.67306e-05
1.67306e-05
1.67304e-05
1.67298e-05
1.67314e-05
1.673e-05
1.67303e-05
1.67316e-05
1.67306e-05
1.67298e-05
1.67308e-05
1.67314e-05
1.67295e-05
1.67305e-05
1.67315e-05
1.67297e-05
1.67309e-05
1.67316e-05
1.67302e-05
1.67299e-05
1.67313e-05
1.673e-05
1.673e-05
1.67313e-05
1.67299e-05
1.67302e-05
1.67316e-05
1.67309e-05
1.67297e-05
1.67315e-05
1.67305e-05
1.67295e-05
1.67313e-05
1.67308e-05
1.67298e-05
1.67306e-05
1.67316e-05
1.67303e-05
1.673e-05
1.67314e-05
1.67298e-05
1.67298e-05
1.67315e-05
1.67298e-05
1.67301e-05
1.67315e-05
1.67299e-05
1.67305e-05
1.67316e-05
1.67304e-05
1.67296e-05
1.67313e-05
1.6731e-05
1.673e-05
1.67312e-05
1.67301e-05
1.67297e-05
1.67313e-05
1.67315e-05
1.67299e-05
1.67297e-05
1.67316e-05
1.67297e-05
1.67305e-05
1.67314e-05
1.67296e-05
1.67305e-05
1.67316e-05
1.67303e-05
1.67298e-05
1.67319e-05
1.67304e-05
1.67298e-05
1.67313e-05
1.67302e-05
1.67335e-05
1.6745e-05
1.67002e-05
1.65928e-05
1.64369e-05
1.62282e-05
1.59766e-05
1.56949e-05
1.53792e-05
1.50495e-05
1.46973e-05
1.43402e-05
1.39809e-05
1.36506e-05
1.33431e-05
1.30533e-05
1.27932e-05
1.255e-05
1.2336e-05
1.21397e-05
1.19642e-05
1.18037e-05
1.16293e-05
1.14487e-05
1.12623e-05
1.10739e-05
1.0867e-05
1.06592e-05
1.04497e-05
1.02221e-05
1.00012e-05
9.82233e-06
9.68107e-06
9.59315e-06
9.55367e-06
9.57346e-06
9.6517e-06
9.79785e-06
1.00355e-05
1.03401e-05
1.06898e-05
1.09666e-05
1.11239e-05
1.11958e-05
1.12149e-05
1.12172e-05
1.12191e-05
1.14008e-05
1.14e-05
1.13976e-05
1.13772e-05
1.13056e-05
1.11449e-05
1.08656e-05
1.05105e-05
1.02004e-05
9.96229e-06
9.81425e-06
9.73121e-06
9.71663e-06
9.75607e-06
9.845e-06
9.98457e-06
1.01717e-05
1.03954e-05
1.06216e-05
1.08401e-05
1.10511e-05
1.12554e-05
1.14527e-05
1.16421e-05
1.18241e-05
1.19982e-05
1.21657e-05
1.23425e-05
1.25401e-05
1.27607e-05
1.3005e-05
1.32703e-05
1.35634e-05
1.38765e-05
1.42145e-05
1.45755e-05
1.49396e-05
1.52943e-05
1.5633e-05
1.595e-05
1.62386e-05
1.64922e-05
1.6703e-05
1.68645e-05
1.69706e-05
1.70163e-05
1.70064e-05
1.70024e-05
1.70025e-05
1.70024e-05
1.70024e-05
1.70024e-05
1.70024e-05
1.70024e-05
1.70024e-05
1.70024e-05
1.70024e-05
1.70024e-05
1.70024e-05
1.70024e-05
1.70024e-05
1.70024e-05
1.70024e-05
1.70024e-05
1.70025e-05
1.70024e-05
1.70024e-05
1.70024e-05
1.70024e-05
1.70024e-05
1.70024e-05
1.70024e-05
1.70024e-05
1.70024e-05
1.70024e-05
1.70024e-05
1.70024e-05
1.70024e-05
1.70024e-05
1.70024e-05
1.70023e-05
1.70017e-05
1.70033e-05
1.70018e-05
1.70022e-05
1.70035e-05
1.70025e-05
1.70017e-05
1.70027e-05
1.70032e-05
1.70014e-05
1.70024e-05
1.70034e-05
1.70016e-05
1.70027e-05
1.70035e-05
1.70021e-05
1.70017e-05
1.70032e-05
1.70018e-05
1.70018e-05
1.70032e-05
1.70017e-05
1.70021e-05
1.70035e-05
1.70027e-05
1.70016e-05
1.70034e-05
1.70024e-05
1.70014e-05
1.70032e-05
1.70027e-05
1.70017e-05
1.70025e-05
1.70035e-05
1.70022e-05
1.70018e-05
1.70033e-05
1.70017e-05
1.70017e-05
1.70034e-05
1.70016e-05
1.7002e-05
1.70034e-05
1.70018e-05
1.70024e-05
1.70035e-05
1.70023e-05
1.70015e-05
1.70032e-05
1.70029e-05
1.70018e-05
1.70031e-05
1.70019e-05
1.70015e-05
1.70032e-05
1.70034e-05
1.70018e-05
1.70016e-05
1.70035e-05
1.70016e-05
1.70024e-05
1.70033e-05
1.70014e-05
1.70023e-05
1.70035e-05
1.70022e-05
1.70017e-05
1.70038e-05
1.70023e-05
1.70016e-05
1.70032e-05
1.70021e-05
1.70054e-05
1.7017e-05
1.69716e-05
1.68626e-05
1.67044e-05
1.64925e-05
1.62373e-05
1.59514e-05
1.5631e-05
1.52964e-05
1.4939e-05
1.45765e-05
1.42119e-05
1.38766e-05
1.35645e-05
1.32702e-05
1.30061e-05
1.27592e-05
1.25418e-05
1.23423e-05
1.2164e-05
1.20009e-05
1.18238e-05
1.16403e-05
1.14508e-05
1.12595e-05
1.10492e-05
1.08382e-05
1.06253e-05
1.03942e-05
1.01697e-05
9.98801e-06
9.8444e-06
9.75488e-06
9.71448e-06
9.73421e-06
9.81323e-06
9.96115e-06
1.02019e-05
1.05105e-05
1.0865e-05
1.11455e-05
1.1305e-05
1.13778e-05
1.13971e-05
1.13995e-05
1.14014e-05
1.1586e-05
1.15852e-05
1.15828e-05
1.15621e-05
1.14896e-05
1.13267e-05
1.10437e-05
1.06838e-05
1.03695e-05
1.01284e-05
9.97856e-06
9.89469e-06
9.88025e-06
9.92061e-06
1.00112e-05
1.01531e-05
1.03432e-05
1.05705e-05
1.08003e-05
1.10221e-05
1.12365e-05
1.1444e-05
1.16445e-05
1.1837e-05
1.20219e-05
1.21987e-05
1.23689e-05
1.25486e-05
1.27494e-05
1.29734e-05
1.32215e-05
1.34909e-05
1.37884e-05
1.41063e-05
1.44494e-05
1.48158e-05
1.51852e-05
1.55452e-05
1.5889e-05
1.62107e-05
1.65036e-05
1.67609e-05
1.69748e-05
1.71387e-05
1.72463e-05
1.72928e-05
1.72827e-05
1.72787e-05
1.72787e-05
1.72787e-05
1.72787e-05
1.72787e-05
1.72787e-05
1.72787e-05
1.72787e-05
1.72787e-05
1.72787e-05
1.72787e-05
1.72787e-05
1.72787e-05
1.72787e-05
1.72787e-05
1.72787e-05
1.72787e-05
1.72787e-05
1.72787e-05
1.72787e-05
1.72787e-05
1.72787e-05
1.72787e-05
1.72787e-05
1.72787e-05
1.72787e-05
1.72787e-05
1.72787e-05
1.72787e-05
1.72787e-05
1.72787e-05
1.72787e-05
1.72787e-05
1.72786e-05
1.72779e-05
1.72796e-05
1.72781e-05
1.72785e-05
1.72797e-05
1.72787e-05
1.72779e-05
1.72789e-05
1.72795e-05
1.72776e-05
1.72786e-05
1.72797e-05
1.72778e-05
1.7279e-05
1.72797e-05
1.72784e-05
1.7278e-05
1.72795e-05
1.72781e-05
1.72781e-05
1.72795e-05
1.7278e-05
1.72784e-05
1.72797e-05
1.7279e-05
1.72778e-05
1.72797e-05
1.72786e-05
1.72776e-05
1.72795e-05
1.72789e-05
1.72779e-05
1.72787e-05
1.72797e-05
1.72785e-05
1.72781e-05
1.72796e-05
1.72779e-05
1.7278e-05
1.72797e-05
1.72779e-05
1.72782e-05
1.72797e-05
1.72781e-05
1.72786e-05
1.72798e-05
1.72786e-05
1.72777e-05
1.72794e-05
1.72791e-05
1.72781e-05
1.72793e-05
1.72782e-05
1.72778e-05
1.72795e-05
1.72796e-05
1.7278e-05
1.72779e-05
1.72798e-05
1.72778e-05
1.72786e-05
1.72795e-05
1.72777e-05
1.72786e-05
1.72798e-05
1.72785e-05
1.72779e-05
1.72801e-05
1.72785e-05
1.72779e-05
1.72794e-05
1.72784e-05
1.72817e-05
1.72935e-05
1.72473e-05
1.71368e-05
1.69762e-05
1.67612e-05
1.65022e-05
1.62121e-05
1.58869e-05
1.55473e-05
1.51847e-05
1.48168e-05
1.44467e-05
1.41064e-05
1.37895e-05
1.34908e-05
1.32226e-05
1.29719e-05
1.27511e-05
1.25484e-05
1.23673e-05
1.22015e-05
1.20215e-05
1.1835e-05
1.16426e-05
1.14482e-05
1.12346e-05
1.10202e-05
1.0804e-05
1.05692e-05
1.03412e-05
1.01566e-05
1.00106e-05
9.9194e-06
9.87807e-06
9.89773e-06
9.97752e-06
1.01272e-05
1.0371e-05
1.06838e-05
1.10431e-05
1.13274e-05
1.1489e-05
1.15628e-05
1.15823e-05
1.15847e-05
1.15866e-05
1.17743e-05
1.17735e-05
1.1771e-05
1.17501e-05
1.16766e-05
1.15115e-05
1.12246e-05
1.08599e-05
1.05415e-05
1.02973e-05
1.01457e-05
1.0061e-05
1.00467e-05
1.0088e-05
1.01802e-05
1.03245e-05
1.05177e-05
1.07486e-05
1.09819e-05
1.12073e-05
1.14251e-05
1.16359e-05
1.18396e-05
1.20351e-05
1.2223e-05
1.24027e-05
1.25757e-05
1.27582e-05
1.29622e-05
1.31897e-05
1.34417e-05
1.37152e-05
1.40172e-05
1.43399e-05
1.46881e-05
1.506e-05
1.5435e-05
1.58003e-05
1.61492e-05
1.64756e-05
1.67728e-05
1.70339e-05
1.7251e-05
1.74173e-05
1.75265e-05
1.75737e-05
1.75634e-05
1.75594e-05
1.75594e-05
1.75594e-05
1.75594e-05
1.75594e-05
1.75594e-05
1.75594e-05
1.75594e-05
1.75594e-05
1.75594e-05
1.75594e-05
1.75594e-05
1.75594e-05
1.75594e-05
1.75594e-05
1.75594e-05
1.75594e-05
1.75594e-05
1.75594e-05
1.75594e-05
1.75594e-05
1.75594e-05
1.75594e-05
1.75594e-05
1.75594e-05
1.75594e-05
1.75594e-05
1.75594e-05
1.75594e-05
1.75594e-05
1.75594e-05
1.75594e-05
1.75594e-05
1.75593e-05
1.75586e-05
1.75603e-05
1.75588e-05
1.75592e-05
1.75605e-05
1.75595e-05
1.75586e-05
1.75597e-05
1.75602e-05
1.75583e-05
1.75593e-05
1.75604e-05
1.75585e-05
1.75597e-05
1.75604e-05
1.75591e-05
1.75587e-05
1.75602e-05
1.75588e-05
1.75588e-05
1.75602e-05
1.75587e-05
1.75591e-05
1.75604e-05
1.75597e-05
1.75585e-05
1.75604e-05
1.75593e-05
1.75583e-05
1.75602e-05
1.75597e-05
1.75586e-05
1.75594e-05
1.75605e-05
1.75592e-05
1.75588e-05
1.75603e-05
1.75586e-05
1.75587e-05
1.75604e-05
1.75586e-05
1.75589e-05
1.75604e-05
1.75588e-05
1.75593e-05
1.75605e-05
1.75593e-05
1.75584e-05
1.75601e-05
1.75599e-05
1.75588e-05
1.756e-05
1.75589e-05
1.75585e-05
1.75602e-05
1.75604e-05
1.75587e-05
1.75586e-05
1.75605e-05
1.75585e-05
1.75593e-05
1.75603e-05
1.75584e-05
1.75593e-05
1.75605e-05
1.75592e-05
1.75586e-05
1.75608e-05
1.75592e-05
1.75586e-05
1.75601e-05
1.75591e-05
1.75625e-05
1.75744e-05
1.75275e-05
1.74153e-05
1.72523e-05
1.70342e-05
1.67714e-05
1.6477e-05
1.6147e-05
1.58024e-05
1.54344e-05
1.5061e-05
1.46854e-05
1.434e-05
1.40184e-05
1.37151e-05
1.34428e-05
1.31882e-05
1.29639e-05
1.27581e-05
1.2574e-05
1.24055e-05
1.22226e-05
1.20332e-05
1.18377e-05
1.16401e-05
1.14231e-05
1.12054e-05
1.09857e-05
1.07473e-05
1.05157e-05
1.0328e-05
1.01796e-05
1.00868e-05
1.00445e-05
1.00641e-05
1.01446e-05
1.02961e-05
1.0543e-05
1.08599e-05
1.1224e-05
1.15122e-05
1.16759e-05
1.17507e-05
1.17705e-05
1.17729e-05
1.17749e-05
1.19655e-05
1.19647e-05
1.19622e-05
1.1941e-05
1.18666e-05
1.16993e-05
1.14086e-05
1.1039e-05
1.07164e-05
1.0469e-05
1.03156e-05
1.02301e-05
1.0216e-05
1.02583e-05
1.03522e-05
1.04989e-05
1.06952e-05
1.09297e-05
1.11668e-05
1.13957e-05
1.16169e-05
1.18311e-05
1.2038e-05
1.22366e-05
1.24275e-05
1.26101e-05
1.27859e-05
1.29714e-05
1.31786e-05
1.34097e-05
1.36655e-05
1.39433e-05
1.42499e-05
1.45775e-05
1.49309e-05
1.53083e-05
1.56888e-05
1.60595e-05
1.64136e-05
1.67448e-05
1.70464e-05
1.73113e-05
1.75316e-05
1.77004e-05
1.78112e-05
1.78591e-05
1.78487e-05
1.78446e-05
1.78446e-05
1.78446e-05
1.78446e-05
1.78446e-05
1.78446e-05
1.78446e-05
1.78446e-05
1.78446e-05
1.78446e-05
1.78446e-05
1.78446e-05
1.78446e-05
1.78446e-05
1.78446e-05
1.78446e-05
1.78446e-05
1.78447e-05
1.78446e-05
1.78446e-05
1.78446e-05
1.78446e-05
1.78446e-05
1.78446e-05
1.78446e-05
1.78446e-05
1.78446e-05
1.78446e-05
1.78446e-05
1.78446e-05
1.78446e-05
1.78446e-05
1.78446e-05
1.78445e-05
1.78438e-05
1.78456e-05
1.7844e-05
1.78444e-05
1.78457e-05
1.78447e-05
1.78438e-05
1.78449e-05
1.78455e-05
1.78435e-05
1.78446e-05
1.78456e-05
1.78437e-05
1.7845e-05
1.78457e-05
1.78443e-05
1.78439e-05
1.78454e-05
1.7844e-05
1.7844e-05
1.78454e-05
1.78439e-05
1.78443e-05
1.78457e-05
1.7845e-05
1.78437e-05
1.78456e-05
1.78446e-05
1.78435e-05
1.78455e-05
1.78449e-05
1.78438e-05
1.78447e-05
1.78457e-05
1.78444e-05
1.7844e-05
1.78456e-05
1.78438e-05
1.78439e-05
1.78456e-05
1.78438e-05
1.78442e-05
1.78457e-05
1.7844e-05
1.78446e-05
1.78457e-05
1.78445e-05
1.78436e-05
1.78454e-05
1.78451e-05
1.7844e-05
1.78453e-05
1.78441e-05
1.78437e-05
1.78455e-05
1.78456e-05
1.78439e-05
1.78438e-05
1.78457e-05
1.78438e-05
1.78446e-05
1.78455e-05
1.78436e-05
1.78445e-05
1.78457e-05
1.78444e-05
1.78438e-05
1.78461e-05
1.78444e-05
1.78438e-05
1.78454e-05
1.78443e-05
1.78478e-05
1.78598e-05
1.78122e-05
1.76984e-05
1.7533e-05
1.73117e-05
1.7045e-05
1.67462e-05
1.64114e-05
1.60617e-05
1.56883e-05
1.53093e-05
1.49281e-05
1.45776e-05
1.42511e-05
1.39432e-05
1.36667e-05
1.34081e-05
1.31804e-05
1.29712e-05
1.27842e-05
1.2613e-05
1.24271e-05
1.22347e-05
1.2036e-05
1.18353e-05
1.16149e-05
1.13938e-05
1.11706e-05
1.09284e-05
1.06932e-05
1.05025e-05
1.03516e-05
1.02571e-05
1.02138e-05
1.02332e-05
1.03146e-05
1.04678e-05
1.07179e-05
1.1039e-05
1.1408e-05
1.17e-05
1.18659e-05
1.19417e-05
1.19617e-05
1.19641e-05
1.19661e-05
1.21599e-05
1.2159e-05
1.21565e-05
1.21351e-05
1.20596e-05
1.18902e-05
1.15955e-05
1.1221e-05
1.08942e-05
1.06437e-05
1.04885e-05
1.04022e-05
1.03883e-05
1.04315e-05
1.05272e-05
1.06764e-05
1.08758e-05
1.1114e-05
1.13548e-05
1.15873e-05
1.1812e-05
1.20296e-05
1.22398e-05
1.24416e-05
1.26356e-05
1.28211e-05
1.29997e-05
1.31882e-05
1.33987e-05
1.36334e-05
1.38932e-05
1.41752e-05
1.44865e-05
1.4819e-05
1.51777e-05
1.55607e-05
1.59469e-05
1.6323e-05
1.66823e-05
1.70184e-05
1.73244e-05
1.75933e-05
1.78168e-05
1.7988e-05
1.81005e-05
1.81491e-05
1.81386e-05
1.81344e-05
1.81345e-05
1.81344e-05
1.81344e-05
1.81344e-05
1.81345e-05
1.81344e-05
1.81344e-05
1.81344e-05
1.81344e-05
1.81344e-05
1.81344e-05
1.81344e-05
1.81345e-05
1.81344e-05
1.81344e-05
1.81344e-05
1.81345e-05
1.81344e-05
1.81344e-05
1.81344e-05
1.81344e-05
1.81344e-05
1.81344e-05
1.81344e-05
1.81344e-05
1.81344e-05
1.81344e-05
1.81344e-05
1.81344e-05
1.81344e-05
1.81344e-05
1.81344e-05
1.81343e-05
1.81336e-05
1.81354e-05
1.81338e-05
1.81342e-05
1.81355e-05
1.81345e-05
1.81336e-05
1.81347e-05
1.81353e-05
1.81333e-05
1.81344e-05
1.81355e-05
1.81335e-05
1.81348e-05
1.81355e-05
1.81341e-05
1.81337e-05
1.81353e-05
1.81338e-05
1.81338e-05
1.81353e-05
1.81337e-05
1.81341e-05
1.81355e-05
1.81348e-05
1.81335e-05
1.81355e-05
1.81344e-05
1.81333e-05
1.81353e-05
1.81347e-05
1.81336e-05
1.81345e-05
1.81355e-05
1.81342e-05
1.81338e-05
1.81354e-05
1.81336e-05
1.81337e-05
1.81355e-05
1.81336e-05
1.8134e-05
1.81355e-05
1.81338e-05
1.81344e-05
1.81356e-05
1.81343e-05
1.81334e-05
1.81352e-05
1.81349e-05
1.81338e-05
1.81351e-05
1.81339e-05
1.81335e-05
1.81353e-05
1.81354e-05
1.81337e-05
1.81336e-05
1.81356e-05
1.81336e-05
1.81344e-05
1.81353e-05
1.81334e-05
1.81343e-05
1.81356e-05
1.81342e-05
1.81336e-05
1.81359e-05
1.81343e-05
1.81336e-05
1.81352e-05
1.81341e-05
1.81376e-05
1.81498e-05
1.81015e-05
1.7986e-05
1.78182e-05
1.75936e-05
1.7323e-05
1.70198e-05
1.66801e-05
1.63253e-05
1.59463e-05
1.55618e-05
1.51749e-05
1.48191e-05
1.44877e-05
1.41751e-05
1.38944e-05
1.36318e-05
1.34005e-05
1.3188e-05
1.2998e-05
1.2824e-05
1.26352e-05
1.24396e-05
1.22378e-05
1.20339e-05
1.181e-05
1.15853e-05
1.13587e-05
1.11127e-05
1.08738e-05
1.068e-05
1.05265e-05
1.04303e-05
1.0386e-05
1.04053e-05
1.04874e-05
1.06425e-05
1.08957e-05
1.1221e-05
1.15949e-05
1.18908e-05
1.2059e-05
1.21357e-05
1.2156e-05
1.21585e-05
1.21605e-05
1.23573e-05
1.23565e-05
1.23539e-05
1.23322e-05
1.22558e-05
1.20841e-05
1.17855e-05
1.1406e-05
1.10749e-05
1.08213e-05
1.06644e-05
1.05772e-05
1.05635e-05
1.06078e-05
1.07052e-05
1.08569e-05
1.10595e-05
1.13015e-05
1.1546e-05
1.17822e-05
1.20105e-05
1.22315e-05
1.2445e-05
1.26501e-05
1.28472e-05
1.30357e-05
1.32172e-05
1.34087e-05
1.36225e-05
1.38609e-05
1.41247e-05
1.44111e-05
1.4727e-05
1.50645e-05
1.54286e-05
1.58173e-05
1.62092e-05
1.65909e-05
1.69554e-05
1.72965e-05
1.76069e-05
1.78798e-05
1.81065e-05
1.82803e-05
1.83944e-05
1.84437e-05
1.84331e-05
1.84289e-05
1.84289e-05
1.84289e-05
1.84289e-05
1.84289e-05
1.84289e-05
1.84289e-05
1.84289e-05
1.84289e-05
1.84289e-05
1.84289e-05
1.84289e-05
1.84289e-05
1.84289e-05
1.84289e-05
1.84289e-05
1.84289e-05
1.84289e-05
1.84289e-05
1.84289e-05
1.84289e-05
1.84289e-05
1.84289e-05
1.84289e-05
1.84289e-05
1.84289e-05
1.84289e-05
1.84289e-05
1.84289e-05
1.84289e-05
1.84289e-05
1.84289e-05
1.84289e-05
1.84288e-05
1.84281e-05
1.84299e-05
1.84283e-05
1.84287e-05
1.843e-05
1.8429e-05
1.84281e-05
1.84292e-05
1.84298e-05
1.84278e-05
1.84288e-05
1.843e-05
1.8428e-05
1.84293e-05
1.843e-05
1.84286e-05
1.84282e-05
1.84297e-05
1.84283e-05
1.84283e-05
1.84297e-05
1.84282e-05
1.84286e-05
1.843e-05
1.84293e-05
1.8428e-05
1.843e-05
1.84288e-05
1.84278e-05
1.84298e-05
1.84292e-05
1.84281e-05
1.8429e-05
1.843e-05
1.84287e-05
1.84283e-05
1.84299e-05
1.84281e-05
1.84281e-05
1.84299e-05
1.84281e-05
1.84284e-05
1.843e-05
1.84282e-05
1.84289e-05
1.84301e-05
1.84288e-05
1.84279e-05
1.84297e-05
1.84294e-05
1.84283e-05
1.84296e-05
1.84284e-05
1.8428e-05
1.84298e-05
1.84299e-05
1.84282e-05
1.84281e-05
1.843e-05
1.8428e-05
1.84288e-05
1.84298e-05
1.84278e-05
1.84288e-05
1.84301e-05
1.84287e-05
1.84281e-05
1.84304e-05
1.84287e-05
1.84281e-05
1.84297e-05
1.84286e-05
1.84321e-05
1.84445e-05
1.83955e-05
1.82782e-05
1.81079e-05
1.78801e-05
1.76055e-05
1.72979e-05
1.69532e-05
1.65931e-05
1.62086e-05
1.58184e-05
1.54258e-05
1.50647e-05
1.47282e-05
1.4411e-05
1.41259e-05
1.38593e-05
1.36244e-05
1.34085e-05
1.32154e-05
1.30386e-05
1.28468e-05
1.26481e-05
1.2443e-05
1.22359e-05
1.20085e-05
1.17802e-05
1.155e-05
1.13001e-05
1.10575e-05
1.08606e-05
1.07045e-05
1.06065e-05
1.05612e-05
1.05804e-05
1.06633e-05
1.08201e-05
1.10765e-05
1.1406e-05
1.17849e-05
1.20848e-05
1.22551e-05
1.23329e-05
1.23534e-05
1.23559e-05
1.2358e-05
1.2558e-05
1.25571e-05
1.25545e-05
1.25325e-05
1.24551e-05
1.22812e-05
1.19787e-05
1.15941e-05
1.12588e-05
1.10019e-05
1.08432e-05
1.07552e-05
1.07418e-05
1.07871e-05
1.08863e-05
1.10405e-05
1.12465e-05
1.14922e-05
1.17406e-05
1.19805e-05
1.22124e-05
1.24369e-05
1.26538e-05
1.28621e-05
1.30624e-05
1.32539e-05
1.34384e-05
1.3633e-05
1.38502e-05
1.40923e-05
1.43602e-05
1.46509e-05
1.49717e-05
1.53142e-05
1.56837e-05
1.60782e-05
1.64758e-05
1.68631e-05
1.7233e-05
1.7579e-05
1.78941e-05
1.81709e-05
1.8401e-05
1.85773e-05
1.86931e-05
1.87431e-05
1.87324e-05
1.87281e-05
1.87282e-05
1.87281e-05
1.87281e-05
1.87281e-05
1.87282e-05
1.87281e-05
1.87281e-05
1.87281e-05
1.87281e-05
1.87281e-05
1.87281e-05
1.87281e-05
1.87282e-05
1.87281e-05
1.87281e-05
1.87281e-05
1.87282e-05
1.87281e-05
1.87281e-05
1.87281e-05
1.87281e-05
1.87281e-05
1.87281e-05
1.87281e-05
1.87281e-05
1.87281e-05
1.87281e-05
1.87281e-05
1.87281e-05
1.87281e-05
1.87281e-05
1.87281e-05
1.8728e-05
1.87273e-05
1.87291e-05
1.87275e-05
1.87279e-05
1.87293e-05
1.87282e-05
1.87273e-05
1.87284e-05
1.8729e-05
1.8727e-05
1.87281e-05
1.87292e-05
1.87272e-05
1.87285e-05
1.87292e-05
1.87278e-05
1.87274e-05
1.8729e-05
1.87275e-05
1.87275e-05
1.8729e-05
1.87274e-05
1.87278e-05
1.87292e-05
1.87285e-05
1.87272e-05
1.87292e-05
1.87281e-05
1.8727e-05
1.8729e-05
1.87284e-05
1.87273e-05
1.87282e-05
1.87293e-05
1.87279e-05
1.87275e-05
1.87291e-05
1.87273e-05
1.87273e-05
1.87292e-05
1.87273e-05
1.87276e-05
1.87292e-05
1.87275e-05
1.87281e-05
1.87293e-05
1.8728e-05
1.87271e-05
1.87289e-05
1.87286e-05
1.87275e-05
1.87288e-05
1.87276e-05
1.87272e-05
1.8729e-05
1.87292e-05
1.87274e-05
1.87273e-05
1.87293e-05
1.87272e-05
1.87281e-05
1.8729e-05
1.8727e-05
1.8728e-05
1.87293e-05
1.87279e-05
1.87273e-05
1.87296e-05
1.87279e-05
1.87273e-05
1.87289e-05
1.87278e-05
1.87314e-05
1.87439e-05
1.86941e-05
1.85752e-05
1.84024e-05
1.81712e-05
1.78926e-05
1.75805e-05
1.72308e-05
1.68654e-05
1.64752e-05
1.60792e-05
1.56808e-05
1.53143e-05
1.49729e-05
1.46508e-05
1.43614e-05
1.40906e-05
1.3852e-05
1.36328e-05
1.34366e-05
1.32569e-05
1.3062e-05
1.28601e-05
1.26518e-05
1.24413e-05
1.22103e-05
1.19785e-05
1.17446e-05
1.14908e-05
1.12444e-05
1.10443e-05
1.08856e-05
1.07858e-05
1.07394e-05
1.07585e-05
1.08421e-05
1.10007e-05
1.12604e-05
1.15941e-05
1.1978e-05
1.22819e-05
1.24545e-05
1.25332e-05
1.2554e-05
1.25565e-05
1.25586e-05
1.27618e-05
1.27609e-05
1.27583e-05
1.27361e-05
1.26577e-05
1.24815e-05
1.2175e-05
1.17854e-05
1.14457e-05
1.11857e-05
1.10251e-05
1.09364e-05
1.09232e-05
1.09696e-05
1.10706e-05
1.12274e-05
1.14366e-05
1.16862e-05
1.19385e-05
1.21822e-05
1.24178e-05
1.26458e-05
1.28662e-05
1.30778e-05
1.32812e-05
1.34759e-05
1.36634e-05
1.38611e-05
1.40817e-05
1.43276e-05
1.45996e-05
1.48947e-05
1.52204e-05
1.55681e-05
1.59431e-05
1.63433e-05
1.67468e-05
1.71398e-05
1.75151e-05
1.78662e-05
1.81858e-05
1.84667e-05
1.87001e-05
1.8879e-05
1.89965e-05
1.90473e-05
1.90365e-05
1.90322e-05
1.90322e-05
1.90321e-05
1.90322e-05
1.90322e-05