/*--------------------------------*- C++ -*----------------------------------*\
| =========                 |                                                 |
| \\      /  F ield         | OpenFOAM: The Open Source CFD Toolbox           |
|  \\    /   O peration     | Version:  v2006                                 |
|   \\  /    A nd           | Website:  www.openfoam.com                      |
|    \\/     M anipulation  |                                                 |
\*---------------------------------------------------------------------------*/
FoamFile
{
    version     2.0;
    format      ascii;
    class       volScalarField;
    location    "2000";
    object      p;
}
// * * * * * * * * * * * * * * * * * * * * * * * * * * * * * * * * * * * * * //

dimensions      [0 2 -2 0 0 0 0];


internalField   nonuniform List<scalar> 
40000
(
-4.45712e-09
0.0017576
0.00176596
-0.001657
-0.0037609
-0.00357706
0.0022282
0.0137972
0.0318006
0.0483243
0.0642709
0.077301
0.088658
0.0979359
0.105881
0.112504
0.118198
0.123047
0.127379
0.131283
0.134811
0.138076
0.141082
0.143908
0.146571
0.149112
0.151553
0.153884
0.156096
0.158214
0.160238
0.162186
0.164051
0.165844
0.167565
0.169209
0.170799
0.172361
0.173883
0.175383
0.176838
0.178286
0.179659
0.181077
0.182328
0.183776
0.184802
0.186814
0.18851
0.190485
0.192367
0.194378
0.19638
0.198455
0.200552
0.2027
0.204878
0.207098
0.209351
0.211639
0.213959
0.216312
0.218694
0.221106
0.223546
0.226012
0.228503
0.231018
0.233557
0.236116
0.238696
0.241296
0.243913
0.246547
0.249196
0.25186
0.254537
0.257226
0.259926
0.262636
0.265355
0.268081
0.270815
0.273554
0.276297
0.279044
0.281794
0.284545
0.287296
0.290048
0.292798
0.295546
0.298291
0.301032
0.303768
0.306499
0.309223
0.31194
0.31465
0.317351
0.320043
0.322725
0.325396
0.328057
0.330706
0.333342
0.335967
0.338578
0.341175
0.343758
0.346328
0.348882
0.351421
0.353945
0.356454
0.358946
0.361423
0.363883
0.366327
0.368754
0.371164
0.373558
0.375935
0.378295
0.380638
0.382964
0.385273
0.387566
0.389842
0.392101
0.394343
0.396569
0.398778
0.400971
0.403148
0.405309
0.407453
0.409582
0.411695
0.413793
0.415875
0.417941
0.419992
0.422027
0.424048
0.426052
0.428046
0.430019
0.431987
0.433931
0.435882
0.437799
0.439737
0.441637
0.44344
0.445211
0.447017
0.448813
0.450636
0.45247
0.454324
0.456205
0.458103
0.460034
0.461983
0.463963
0.46596
0.467944
0.469918
0.471813
0.473616
0.475264
0.476639
0.477799
0.478409
0.478766
0.478434
0.477709
0.476038
0.473786
0.470451
0.466042
0.460108
0.453066
0.442901
0.430367
0.413291
0.392155
0.364559
0.330616
0.288869
0.236271
0.177713
0.108881
0.0513327
0.0116522
-0.00941869
-0.0174417
-0.0151643
-0.00999651
0.000153535
0.00178896
0.00186536
-0.00136454
-0.00323615
-0.00289838
0.00284375
0.0140373
0.0316135
0.0479014
0.0637299
0.0767506
0.0881293
0.0974569
0.105453
0.11213
0.117875
0.122769
0.127135
0.131068
0.134619
0.137903
0.140925
0.143765
0.146438
0.148986
0.151433
0.15377
0.155988
0.158113
0.160144
0.162098
0.16397
0.165771
0.167501
0.169154
0.170753
0.172323
0.173852
0.175359
0.176821
0.178277
0.179658
0.181086
0.182348
0.183816
0.18487
0.186873
0.188558
0.190529
0.192407
0.194416
0.196416
0.19849
0.200585
0.202731
0.204908
0.207127
0.209378
0.211665
0.213984
0.216336
0.218717
0.221128
0.223566
0.226031
0.228521
0.231036
0.233573
0.236131
0.23871
0.241309
0.243925
0.246557
0.249206
0.251869
0.254545
0.257233
0.259932
0.262641
0.265359
0.268084
0.270817
0.273555
0.276297
0.279043
0.281792
0.284542
0.287293
0.290043
0.292792
0.295539
0.298284
0.301024
0.303759
0.306489
0.309213
0.311929
0.314638
0.317339
0.32003
0.322711
0.325382
0.328042
0.33069
0.333326
0.33595
0.33856
0.341157
0.34374
0.346309
0.348863
0.351402
0.353925
0.356434
0.358926
0.361402
0.363862
0.366305
0.368732
0.371142
0.373536
0.375912
0.378272
0.380615
0.382941
0.385251
0.387543
0.389819
0.392078
0.39432
0.396546
0.398755
0.400948
0.403125
0.405286
0.407431
0.40956
0.411673
0.41377
0.415852
0.417918
0.41997
0.422005
0.424027
0.426031
0.428025
0.429998
0.431967
0.433911
0.435862
0.43778
0.439715
0.441614
0.443425
0.445204
0.447016
0.448818
0.450645
0.452484
0.454342
0.456226
0.458127
0.46006
0.462009
0.463988
0.46598
0.467956
0.469918
0.471797
0.473577
0.475196
0.476539
0.477657
0.478227
0.478537
0.478153
0.477364
0.475624
0.47329
0.469855
0.465326
0.459254
0.452004
0.441593
0.428764
0.411353
0.389837
0.361835
0.327505
0.28539
0.232741
0.17456
0.106984
0.0510136
0.0123335
-0.00835353
-0.0164031
-0.0143526
-0.00950077
0.00034743
0.00184056
0.00198993
-0.00103605
-0.00265123
-0.00213123
0.00358237
0.0144178
0.0315576
0.0475762
0.0632598
0.0762467
0.0876321
0.0969978
0.105037
0.111765
0.117557
0.122496
0.126895
0.130855
0.134428
0.137731
0.140769
0.143622
0.146306
0.148861
0.151313
0.153656
0.155881
0.158012
0.16005
0.162011
0.16389
0.165698
0.167436
0.169099
0.170706
0.172284
0.17382
0.175335
0.176804
0.178268
0.179657
0.181097
0.182371
0.183861
0.184942
0.186937
0.18861
0.190576
0.19245
0.194456
0.196454
0.198526
0.200619
0.202764
0.204939
0.207157
0.209407
0.211692
0.21401
0.21636
0.218741
0.22115
0.223587
0.226051
0.22854
0.231053
0.233589
0.236147
0.238724
0.241321
0.243936
0.246568
0.249215
0.251877
0.254552
0.257239
0.259937
0.262645
0.265362
0.268086
0.270818
0.273555
0.276296
0.279041
0.281789
0.284538
0.287288
0.290038
0.292786
0.295532
0.298275
0.301015
0.303749
0.306478
0.309201
0.311917
0.314625
0.317325
0.320015
0.322696
0.325366
0.328025
0.330673
0.333309
0.335932
0.338542
0.341138
0.343721
0.346289
0.348842
0.351381
0.353904
0.356412
0.358904
0.361379
0.363839
0.366282
0.368709
0.371119
0.373512
0.375889
0.378248
0.380591
0.382917
0.385226
0.387519
0.389794
0.392053
0.394296
0.396521
0.398731
0.400924
0.403101
0.405262
0.407407
0.409536
0.411649
0.413747
0.415829
0.417895
0.419947
0.421983
0.424005
0.426009
0.428003
0.429977
0.431947
0.433891
0.435842
0.43776
0.439693
0.44159
0.44341
0.445197
0.447015
0.448821
0.450653
0.452496
0.454357
0.456244
0.458147
0.460081
0.46203
0.464006
0.465992
0.467958
0.469906
0.471766
0.473523
0.475111
0.47642
0.477496
0.478024
0.478286
0.477847
0.476993
0.475182
0.472766
0.469227
0.464575
0.458359
0.450892
0.440228
0.427099
0.409343
0.387442
0.359032
0.324315
0.28185
0.229178
0.171439
0.105174
0.0508051
0.0131266
-0.00717401
-0.0152588
-0.0134482
-0.00894405
0.00055992
0.00191925
0.00212975
-0.0007139
-0.00209784
-0.00141198
0.00428281
0.0148005
0.0315419
0.0473028
0.0628406
0.0757862
0.0871707
0.0965674
0.104645
0.111417
0.117254
0.122235
0.126665
0.130651
0.134246
0.137567
0.14062
0.143485
0.146179
0.148741
0.151198
0.153547
0.155778
0.157916
0.159959
0.161926
0.163812
0.165627
0.167373
0.169045
0.170661
0.172246
0.173789
0.175312
0.176787
0.17826
0.179657
0.181107
0.182393
0.183903
0.185009
0.186997
0.18866
0.190621
0.192491
0.194495
0.19649
0.19856
0.200652
0.202795
0.204969
0.207185
0.209434
0.211718
0.214035
0.216384
0.218763
0.221171
0.223607
0.22607
0.228558
0.23107
0.233604
0.236161
0.238738
0.241333
0.243947
0.246578
0.249224
0.251885
0.254559
0.257245
0.259942
0.262649
0.265365
0.268088
0.270818
0.273554
0.276295
0.279039
0.281786
0.284534
0.287283
0.290032
0.292779
0.295525
0.298267
0.301006
0.303739
0.306468
0.30919
0.311905
0.314612
0.317311
0.320001
0.322681
0.325351
0.328009
0.330657
0.333292
0.335914
0.338524
0.34112
0.343702
0.346269
0.348822
0.351361
0.353883
0.356391
0.358882
0.361358
0.363817
0.36626
0.368686
0.371096
0.373489
0.375866
0.378225
0.380568
0.382894
0.385203
0.387495
0.389771
0.39203
0.394272
0.396498
0.398707
0.400901
0.403077
0.405238
0.407384
0.409513
0.411626
0.413724
0.415806
0.417873
0.419925
0.421961
0.423983
0.425988
0.427983
0.429957
0.431927
0.433872
0.435823
0.43774
0.439673
0.441568
0.443396
0.445189
0.447013
0.448824
0.45066
0.452506
0.454371
0.45626
0.458165
0.4601
0.462048
0.464021
0.466001
0.467958
0.469892
0.471734
0.473467
0.475025
0.476302
0.477337
0.477825
0.47804
0.477549
0.476633
0.474753
0.472256
0.468616
0.463845
0.457485
0.44981
0.438901
0.425484
0.4074
0.385135
0.356343
0.321271
0.278503
0.22585
0.16857
0.103549
0.0506458
0.013875
-0.00607065
-0.0141836
-0.0125908
-0.00840369
0.000793111
0.00202671
0.00228911
-0.000386683
-0.00155882
-0.000722256
0.00495377
0.0151748
0.0315392
0.0470498
0.0624401
0.07534
0.086719
0.0961431
0.104256
0.111071
0.116951
0.121973
0.126434
0.130447
0.134064
0.137402
0.140471
0.143348
0.146052
0.148621
0.151083
0.153437
0.155674
0.157818
0.159868
0.161841
0.163734
0.165556
0.167309
0.16899
0.170615
0.172208
0.173758
0.175288
0.176771
0.178252
0.179657
0.181117
0.182415
0.183943
0.185072
0.187054
0.188708
0.190665
0.192531
0.194533
0.196525
0.198594
0.200684
0.202826
0.204998
0.207213
0.20946
0.211744
0.214059
0.216407
0.218784
0.221192
0.223626
0.226088
0.228575
0.231086
0.233619
0.236175
0.23875
0.241345
0.243958
0.246588
0.249233
0.251892
0.254565
0.25725
0.259946
0.262652
0.265367
0.26809
0.270819
0.273554
0.276294
0.279037
0.281783
0.28453
0.287278
0.290026
0.292773
0.295517
0.298259
0.300997
0.30373
0.306457
0.309179
0.311893
0.3146
0.317298
0.319987
0.322667
0.325336
0.327994
0.33064
0.333275
0.335897
0.338506
0.341101
0.343683
0.34625
0.348803
0.35134
0.353863
0.35637
0.358861
0.361336
0.363795
0.366238
0.368664
0.371074
0.373467
0.375843
0.378202
0.380545
0.382871
0.38518
0.387472
0.389748
0.392007
0.394249
0.396475
0.398684
0.400877
0.403054
0.405215
0.407361
0.40949
0.411604
0.413702
0.415784
0.417851
0.419903
0.421939
0.423962
0.425968
0.427962
0.429937
0.431908
0.433853
0.435804
0.437721
0.439653
0.441547
0.443382
0.445182
0.447011
0.448826
0.450667
0.452517
0.454384
0.456277
0.458183
0.460118
0.462066
0.464036
0.466009
0.467956
0.469877
0.4717
0.473411
0.474939
0.476183
0.477177
0.477626
0.477793
0.477249
0.476271
0.474321
0.471741
0.467999
0.463107
0.456601
0.448717
0.437564
0.42386
0.40545
0.382828
0.353666
0.318259
0.275221
0.222629
0.165837
0.102044
0.0505348
0.014614
-0.00500037
-0.0131413
-0.0117561
-0.0078657
0.00104958
0.00216364
0.00247174
-4.55482e-05
-0.00101957
-4.37987e-05
0.00561209
0.0155501
0.0315512
0.0468149
0.0620541
0.0749034
0.0862722
0.0957203
0.103867
0.110723
0.116645
0.121708
0.1262
0.13024
0.133878
0.137235
0.140319
0.143209
0.145923
0.148499
0.150967
0.153327
0.155569
0.15772
0.159776
0.161755
0.163654
0.165484
0.167245
0.168935
0.170568
0.172169
0.173727
0.175264
0.176754
0.178243
0.179656
0.181127
0.182437
0.183982
0.185132
0.187109
0.188756
0.190709
0.192571
0.19457
0.196561
0.198628
0.200716
0.202856
0.205027
0.207241
0.209487
0.211769
0.214083
0.21643
0.218806
0.221212
0.223646
0.226106
0.228592
0.231102
0.233634
0.236188
0.238763
0.241357
0.243969
0.246597
0.249241
0.2519
0.254572
0.257256
0.259951
0.262656
0.26537
0.268091
0.27082
0.273554
0.276292
0.279035
0.28178
0.284526
0.287273
0.290021
0.292766
0.29551
0.298251
0.300988
0.30372
0.306447
0.309168
0.311881
0.314587
0.317285
0.319973
0.322652
0.32532
0.327978
0.330624
0.333258
0.335879
0.338488
0.341083
0.343664
0.346231
0.348783
0.35132
0.353842
0.356349
0.35884
0.361315
0.363774
0.366216
0.368642
0.371051
0.373444
0.37582
0.378179
0.380522
0.382848
0.385157
0.387449
0.389724
0.391983
0.394226
0.396451
0.398661
0.400854
0.403031
0.405192
0.407338
0.409467
0.411581
0.413679
0.415762
0.417829
0.419882
0.421918
0.423941
0.425947
0.427942
0.429917
0.431888
0.433833
0.435785
0.437702
0.439633
0.441525
0.443369
0.445174
0.447009
0.448828
0.450673
0.452527
0.454398
0.456293
0.4582
0.460137
0.462083
0.46405
0.466016
0.467954
0.46986
0.471665
0.473352
0.474851
0.476061
0.477015
0.477422
0.477542
0.476944
0.475901
0.47388
0.471216
0.46737
0.462352
0.455696
0.447597
0.436198
0.422204
0.403469
0.380493
0.350969
0.315244
0.271966
0.219481
0.163216
0.100659
0.0504973
0.0153822
-0.00392503
-0.0121016
-0.0109238
-0.0073193
0.00133039
0.00233123
0.00268014
0.00031338
-0.000474986
0.00062891
0.00626241
0.0159295
0.03158
0.0465999
0.0616848
0.0744788
0.0858326
0.0953009
0.103478
0.110374
0.116337
0.121441
0.125964
0.13003
0.13369
0.137066
0.140165
0.143068
0.145792
0.148376
0.150849
0.153214
0.155463
0.15762
0.159682
0.161668
0.163574
0.16541
0.167179
0.168878
0.17052
0.172128
0.173694
0.175239
0.176736
0.178234
0.179656
0.181137
0.182459
0.18402
0.185191
0.187162
0.188803
0.190752
0.192611
0.194607
0.196596
0.198661
0.200747
0.202886
0.205056
0.207268
0.209513
0.211794
0.214107
0.216452
0.218828
0.221232
0.223665
0.226124
0.228609
0.231117
0.233649
0.236202
0.238776
0.241368
0.243979
0.246607
0.24925
0.251907
0.254578
0.257261
0.259955
0.262659
0.265372
0.268093
0.27082
0.273553
0.276291
0.279033
0.281777
0.284522
0.287269
0.290015
0.29276
0.295502
0.298242
0.300979
0.30371
0.306436
0.309156
0.311869
0.314574
0.317271
0.319959
0.322637
0.325305
0.327962
0.330607
0.333241
0.335862
0.33847
0.341064
0.343645
0.346211
0.348763
0.3513
0.353822
0.356328
0.358819
0.361293
0.363752
0.366194
0.36862
0.371029
0.373421
0.375797
0.378156
0.380499
0.382824
0.385133
0.387426
0.389701
0.39196
0.394202
0.396428
0.398638
0.400831
0.403008
0.405169
0.407315
0.409444
0.411558
0.413656
0.415739
0.417807
0.41986
0.421896
0.42392
0.425926
0.427921
0.429897
0.431868
0.433814
0.435766
0.437682
0.439614
0.441504
0.443355
0.445166
0.447006
0.44883
0.450679
0.452537
0.454411
0.456308
0.458218
0.460154
0.462099
0.464063
0.466022
0.46795
0.469842
0.471628
0.473291
0.474759
0.475936
0.476849
0.477215
0.477286
0.476632
0.475525
0.47343
0.470679
0.466726
0.461581
0.454769
0.446453
0.434806
0.42052
0.401461
0.378134
0.348259
0.312235
0.268752
0.21642
0.160725
0.0994134
0.0505555
0.016201
-0.00282774
-0.011053
-0.0100871
-0.00676132
0.00163672
0.00253104
0.00291669
0.000693215
7.83497e-05
0.00129899
0.00690647
0.0163133
0.0316253
0.0464052
0.0613332
0.0740673
0.0854015
0.0948861
0.103091
0.110025
0.116028
0.121171
0.125725
0.129818
0.133501
0.136894
0.14001
0.142925
0.145659
0.148251
0.15073
0.153101
0.155356
0.157518
0.159587
0.161579
0.163492
0.165335
0.167112
0.16882
0.17047
0.172087
0.173661
0.175213
0.176718
0.178224
0.179655
0.181147
0.182481
0.184056
0.185248
0.187213
0.188849
0.190794
0.19265
0.194644
0.19663
0.198694
0.200779
0.202916
0.205085
0.207295
0.209539
0.211818
0.21413
0.216474
0.218849
0.221252
0.223684
0.226142
0.228625
0.231133
0.233663
0.236216
0.238788
0.24138
0.243989
0.246616
0.249258
0.251915
0.254584
0.257266
0.25996
0.262663
0.265375
0.268094
0.270821
0.273553
0.27629
0.27903
0.281773
0.284518
0.287264
0.290009
0.292753
0.295495
0.298234
0.300969
0.3037
0.306426
0.309145
0.311857
0.314562
0.317258
0.319945
0.322622
0.32529
0.327946
0.330591
0.333224
0.335844
0.338451
0.341046
0.343626
0.346192
0.348743
0.35128
0.353801
0.356307
0.358797
0.361272
0.36373
0.366172
0.368597
0.371006
0.373399
0.375774
0.378133
0.380476
0.382801
0.38511
0.387402
0.389677
0.391936
0.394179
0.396404
0.398614
0.400807
0.402985
0.405146
0.407291
0.409421
0.411535
0.413634
0.415717
0.417784
0.419838
0.421874
0.423898
0.425905
0.427901
0.429877
0.431849
0.433794
0.435747
0.437663
0.439595
0.441482
0.443342
0.445158
0.447004
0.448832
0.450685
0.452546
0.454423
0.456323
0.458234
0.460172
0.462115
0.464075
0.466027
0.467945
0.469823
0.471588
0.473228
0.474666
0.475809
0.476681
0.477005
0.477026
0.476316
0.475142
0.472972
0.470132
0.46607
0.460793
0.453822
0.445286
0.433389
0.41881
0.399428
0.375757
0.345542
0.309242
0.265592
0.213464
0.158382
0.0983244
0.0507251
0.0170853
-0.00169623
-0.00998721
-0.00924091
-0.00618924
0.00197026
0.00276492
0.0031839
0.00109727
0.000644221
0.0019701
0.00754658
0.0167019
0.0316865
0.0462303
0.0609994
0.0736692
0.08498
0.0944769
0.102706
0.109676
0.115717
0.1209
0.125484
0.129605
0.133309
0.136721
0.139853
0.14278
0.145526
0.148126
0.150611
0.152987
0.155248
0.157416
0.159491
0.16149
0.163409
0.165259
0.167044
0.16876
0.17042
0.172045
0.173626
0.175187
0.1767
0.178214
0.179654
0.181156
0.182503
0.184091
0.185302
0.187262
0.188895
0.190836
0.192689
0.194681
0.196665
0.198726
0.20081
0.202946
0.205113
0.207322
0.209564
0.211843
0.214153
0.216496
0.21887
0.221272
0.223702
0.226159
0.228642
0.231148
0.233678
0.236229
0.2388
0.241391
0.244
0.246625
0.249266
0.251922
0.25459
0.257271
0.259964
0.262666
0.265377
0.268095
0.270821
0.273552
0.276288
0.279028
0.28177
0.284514
0.287258
0.290003
0.292746
0.295487
0.298226
0.30096
0.30369
0.306415
0.309133
0.311845
0.314549
0.317244
0.319931
0.322608
0.325274
0.32793
0.330574
0.333207
0.335826
0.338433
0.341027
0.343607
0.346172
0.348723
0.351259
0.35378
0.356286
0.358776
0.36125
0.363708
0.36615
0.368575
0.370984
0.373376
0.375751
0.37811
0.380452
0.382778
0.385087
0.387379
0.389654
0.391913
0.394155
0.396381
0.398591
0.400784
0.402961
0.405123
0.407268
0.409398
0.411512
0.413611
0.415694
0.417762
0.419815
0.421853
0.423877
0.425883
0.42788
0.429856
0.431829
0.433775
0.435728
0.437643
0.439576
0.441461
0.443329
0.445149
0.447001
0.448834
0.450691
0.452556
0.454436
0.456338
0.458251
0.460188
0.46213
0.464087
0.466031
0.467939
0.469801
0.471548
0.473163
0.47457
0.475679
0.476509
0.47679
0.47676
0.475993
0.474752
0.472506
0.469574
0.465401
0.459989
0.452854
0.444095
0.431947
0.417075
0.397373
0.373363
0.342825
0.306272
0.262495
0.210622
0.156196
0.0974027
0.0510185
0.0180487
-0.000518521
-0.00889506
-0.00837943
-0.00559955
0.00233317
0.00303491
0.00348439
0.00152889
0.00122646
0.0026461
0.00818544
0.0170962
0.0317632
0.0460749
0.0606831
0.0732851
0.0845684
0.0940738
0.102324
0.109328
0.115405
0.120627
0.125242
0.129389
0.133116
0.136547
0.139694
0.142635
0.145391
0.147999
0.150489
0.152871
0.155138
0.157312
0.159394
0.161398
0.163325
0.165182
0.166975
0.1687
0.170368
0.172001
0.173591
0.175159
0.17668
0.178203
0.179652
0.181164
0.182524
0.184125
0.185354
0.18731
0.18894
0.190877
0.192727
0.194716
0.196699
0.198758
0.20084
0.202975
0.205141
0.207348
0.209589
0.211867
0.214176
0.216518
0.21889
0.221292
0.223721
0.226177
0.228658
0.231163
0.233692
0.236242
0.238812
0.241402
0.244009
0.246634
0.249274
0.251928
0.254596
0.257276
0.259968
0.262669
0.265379
0.268096
0.270821
0.273551
0.276286
0.279025
0.281766
0.284509
0.287253
0.289997
0.292739
0.29548
0.298217
0.300951
0.30368
0.306404
0.309122
0.311833
0.314536
0.317231
0.319917
0.322593
0.325259
0.327914
0.330558
0.333189
0.335809
0.338415
0.341008
0.343588
0.346153
0.348703
0.351239
0.35376
0.356265
0.358755
0.361228
0.363686
0.366127
0.368552
0.370961
0.373353
0.375728
0.378087
0.380429
0.382754
0.385063
0.387355
0.38963
0.391889
0.394131
0.396357
0.398567
0.40076
0.402938
0.405099
0.407245
0.409375
0.411489
0.413588
0.415672
0.41774
0.419793
0.421831
0.423855
0.425862
0.427859
0.429836
0.431809
0.433755
0.435709
0.437624
0.439557
0.44144
0.443316
0.445141
0.446998
0.448835
0.450696
0.452565
0.454448
0.456353
0.458267
0.460205
0.462145
0.464097
0.466034
0.467931
0.469779
0.471505
0.473096
0.474471
0.475546
0.476334
0.476572
0.47649
0.475665
0.474354
0.47203
0.469005
0.464718
0.459167
0.451865
0.44288
0.43048
0.415314
0.395297
0.370957
0.34011
0.303331
0.259469
0.207904
0.154178
0.0966558
0.0514447
0.0191025
0.000716501
-0.00776742
-0.00749612
-0.00498811
0.002728
0.00334333
0.00382084
0.00199132
0.00182874
0.00333071
0.0088258
0.0174973
0.0318552
0.0459385
0.0603844
0.0729153
0.0841672
0.0936777
0.101947
0.108982
0.115093
0.120353
0.124998
0.129172
0.132921
0.136371
0.139534
0.142487
0.145254
0.147871
0.150367
0.152755
0.155027
0.157208
0.159295
0.161306
0.163239
0.165104
0.166904
0.168638
0.170315
0.171957
0.173554
0.175131
0.17666
0.178191
0.17965
0.181171
0.182544
0.184156
0.185404
0.187355
0.188984
0.190917
0.192765
0.194752
0.196732
0.19879
0.20087
0.203003
0.205168
0.207374
0.209614
0.21189
0.214199
0.216539
0.21891
0.221311
0.223739
0.226194
0.228674
0.231178
0.233705
0.236254
0.238824
0.241412
0.244019
0.246642
0.249282
0.251935
0.254602
0.257281
0.259971
0.262671
0.26538
0.268097
0.270821
0.27355
0.276284
0.279022
0.281763
0.284505
0.287248
0.289991
0.292732
0.295472
0.298209
0.300942
0.30367
0.306393
0.30911
0.31182
0.314523
0.317217
0.319902
0.322578
0.325243
0.327898
0.330541
0.333172
0.335791
0.338397
0.34099
0.343568
0.346133
0.348683
0.351219
0.353739
0.356244
0.358733
0.361207
0.363664
0.366105
0.36853
0.370938
0.37333
0.375705
0.378064
0.380406
0.382731
0.38504
0.387331
0.389607
0.391865
0.394108
0.396334
0.398543
0.400737
0.402914
0.405076
0.407222
0.409352
0.411466
0.413565
0.415649
0.417717
0.419771
0.421809
0.423834
0.425841
0.427838
0.429816
0.431789
0.433735
0.43569
0.437604
0.439539
0.441419
0.443304
0.445132
0.446994
0.448835
0.450701
0.452574
0.45446
0.456367
0.458282
0.46022
0.462159
0.464107
0.466036
0.467922
0.469754
0.47146
0.473026
0.47437
0.47541
0.476156
0.47635
0.476215
0.475331
0.47395
0.471546
0.468424
0.464021
0.458327
0.450855
0.441641
0.428988
0.41353
0.393201
0.368539
0.337402
0.300426
0.256522
0.205317
0.152332
0.0960891
0.0520107
0.0202558
0.00201857
-0.00659565
-0.0065844
-0.00435043
0.00315767
0.00369269
0.004196
0.00248773
0.0024546
0.00402756
0.00947044
0.0179064
0.0319626
0.0458209
0.0601032
0.0725603
0.0837768
0.0932893
0.101573
0.108637
0.114782
0.120078
0.124752
0.128954
0.132725
0.136193
0.139372
0.142339
0.145116
0.147741
0.150244
0.152637
0.154915
0.157102
0.159195
0.161213
0.163153
0.165024
0.166832
0.168575
0.17026
0.171911
0.173516
0.175101
0.176638
0.178179
0.179646
0.181178
0.182564
0.184186
0.185452
0.187398
0.189027
0.190956
0.192802
0.194786
0.196765
0.198821
0.2009
0.203031
0.205195
0.2074
0.209639
0.211914
0.214221
0.21656
0.21893
0.221329
0.223756
0.22621
0.228689
0.231193
0.233719
0.236267
0.238835
0.241423
0.244028
0.246651
0.249289
0.251941
0.254607
0.257285
0.259975
0.262674
0.265382
0.268098
0.270821
0.273549
0.276282
0.279019
0.281759
0.2845
0.287242
0.289984
0.292725
0.295464
0.2982
0.300932
0.30366
0.306382
0.309099
0.311808
0.31451
0.317203
0.319888
0.322563
0.325228
0.327882
0.330524
0.333155
0.335773
0.338379
0.340971
0.343549
0.346113
0.348663
0.351198
0.353718
0.356223
0.358712
0.361185
0.363642
0.366083
0.368507
0.370916
0.373307
0.375682
0.378041
0.380382
0.382707
0.385016
0.387308
0.389583
0.391842
0.394084
0.39631
0.39852
0.400713
0.402891
0.405052
0.407198
0.409328
0.411443
0.413542
0.415626
0.417695
0.419749
0.421787
0.423812
0.42582
0.427818
0.429795
0.431769
0.433716
0.43567
0.437584
0.439521
0.441398
0.443291
0.445123
0.446991
0.448836
0.450706
0.452582
0.454471
0.456381
0.458297
0.460235
0.462172
0.464116
0.466037
0.467911
0.469728
0.471413
0.472954
0.474266
0.475271
0.475974
0.476123
0.475935
0.47499
0.473537
0.471052
0.467831
0.463309
0.45747
0.449822
0.440377
0.427472
0.411721
0.391087
0.366114
0.334704
0.297561
0.253661
0.202869
0.150665
0.0957054
0.0527205
0.0215159
0.00339606
-0.00537167
-0.00563764
-0.00368168
0.00362541
0.00408574
0.00461268
0.00302124
0.00310743
0.0047402
0.0101222
0.018325
0.0320853
0.0457218
0.0598395
0.0722204
0.0833973
0.0929092
0.101205
0.108295
0.114471
0.119802
0.124506
0.128734
0.132527
0.136014
0.139209
0.142189
0.144977
0.147611
0.15012
0.152518
0.154803
0.156995
0.159094
0.161118
0.163064
0.164943
0.166759
0.16851
0.170204
0.171863
0.173477
0.17507
0.176616
0.178165
0.179642
0.181183
0.182582
0.184214
0.185498
0.187439
0.189068
0.190994
0.192838
0.19482
0.196797
0.198851
0.200929
0.203059
0.205221
0.207425
0.209662
0.211936
0.214242
0.216581
0.218949
0.221348
0.223774
0.226226
0.228704
0.231207
0.233732
0.236279
0.238846
0.241433
0.244037
0.246659
0.249296
0.251948
0.254612
0.25729
0.259978
0.262676
0.265383
0.268098
0.27082
0.273548
0.27628
0.279016
0.281755
0.284496
0.287237
0.289978
0.292718
0.295456
0.298191
0.300923
0.30365
0.306371
0.309087
0.311796
0.314497
0.31719
0.319874
0.322548
0.325212
0.327865
0.330508
0.333138
0.335756
0.33836
0.340952
0.34353
0.346094
0.348643
0.351178
0.353697
0.356202
0.35869
0.361163
0.36362
0.366061
0.368485
0.370893
0.373284
0.375659
0.378017
0.380359
0.382684
0.384992
0.387284
0.389559
0.391818
0.39406
0.396286
0.398496
0.40069
0.402867
0.405029
0.407175
0.409305
0.41142
0.413519
0.415604
0.417672
0.419727
0.421765
0.42379
0.425799
0.427797
0.429775
0.431749
0.433696
0.435651
0.437565
0.439503
0.441377
0.443278
0.445113
0.446987
0.448836
0.450711
0.45259
0.454482
0.456394
0.458311
0.46025
0.462184
0.464124
0.466037
0.467899
0.4697
0.471364
0.47288
0.47416
0.475129
0.475789
0.475893
0.475649
0.474643
0.473116
0.470547
0.467226
0.462581
0.456593
0.448767
0.43909
0.425931
0.40989
0.388956
0.363682
0.332022
0.294742
0.250893
0.200564
0.149179
0.0955055
0.0535763
0.0228879
0.00485601
-0.004088
-0.0046492
-0.00297673
0.00413473
0.00452539
0.00507374
0.0035949
0.00379053
0.00547208
0.010784
0.0187546
0.0322237
0.0456409
0.0595933
0.0718953
0.0830292
0.0925382
0.100843
0.107957
0.114161
0.119527
0.124258
0.128513
0.132328
0.135834
0.139045
0.142038
0.144837
0.147479
0.149995
0.152399
0.154689
0.156886
0.158992
0.161022
0.162975
0.164861
0.166684
0.168443
0.170146
0.171814
0.173436
0.175037
0.176592
0.17815
0.179637
0.181187
0.182599
0.18424
0.185542
0.187478
0.189109
0.19103
0.192873
0.194852
0.196828
0.198881
0.200957
0.203086
0.205247
0.207449
0.209686
0.211958
0.214263
0.216601
0.218968
0.221365
0.22379
0.226242
0.228719
0.23122
0.233745
0.236291
0.238857
0.241442
0.244046
0.246667
0.249303
0.251953
0.254617
0.257294
0.259981
0.262678
0.265385
0.268099
0.27082
0.273546
0.276278
0.279013
0.281751
0.284491
0.287231
0.289971
0.292711
0.295448
0.298182
0.300913
0.303639
0.30636
0.309075
0.311783
0.314484
0.317176
0.319859
0.322533
0.325196
0.327849
0.330491
0.33312
0.335738
0.338342
0.340933
0.343511
0.346074
0.348623
0.351158
0.353677
0.356181
0.358669
0.361141
0.363598
0.366038
0.368462
0.37087
0.373261
0.375636
0.377994
0.380336
0.382661
0.384969
0.387261
0.389536
0.391794
0.394037
0.396262
0.398472
0.400666
0.402843
0.405005
0.407151
0.409282
0.411397
0.413496
0.415581
0.41765
0.419704
0.421743
0.423769
0.425777
0.427776
0.429754
0.431729
0.433676
0.435632
0.437545
0.439486
0.441356
0.443266
0.445104
0.446983
0.448836
0.450715
0.452598
0.454492
0.456407
0.458325
0.460263
0.462195
0.46413
0.466035
0.467886
0.469671
0.471313
0.472803
0.47405
0.474984
0.4756
0.475658
0.475358
0.474289
0.472687
0.470032
0.466607
0.461838
0.455697
0.447689
0.437778
0.424366
0.408036
0.386809
0.361248
0.32936
0.291976
0.248224
0.198408
0.147876
0.0954881
0.0545784
0.0243751
0.0064042
-0.00273782
-0.00361259
-0.00223026
0.00468938
0.00501471
0.00558209
0.00421171
0.00450711
0.00622661
0.0114589
0.019197
0.0323783
0.0455783
0.0593645
0.0715851
0.0826732
0.0921765
0.100487
0.107622
0.113853
0.119252
0.12401
0.128291
0.132128
0.135652
0.13888
0.141886
0.144696
0.147347
0.149869
0.152278
0.154574
0.156777
0.158889
0.160924
0.162884
0.164777
0.166608
0.168376
0.170087
0.171763
0.173394
0.175004
0.176567
0.178133
0.17963
0.18119
0.182615
0.184264
0.185583
0.187515
0.189148
0.191065
0.192907
0.194884
0.196859
0.19891
0.200984
0.203112
0.205272
0.207473
0.209708
0.21198
0.214284
0.21662
0.218987
0.221383
0.223807
0.226257
0.228733
0.231234
0.233757
0.236302
0.238867
0.241452
0.244055
0.246674
0.249309
0.251959
0.254622
0.257297
0.259984
0.26268
0.265386
0.268099
0.270819
0.273545
0.276275
0.27901
0.281747
0.284486
0.287225
0.289965
0.292703
0.295439
0.298173
0.300903
0.303629
0.306349
0.309063
0.311771
0.31447
0.317162
0.319845
0.322518
0.325181
0.327833
0.330474
0.333103
0.33572
0.338324
0.340915
0.343492
0.346055
0.348603
0.351137
0.353656
0.356159
0.358648
0.36112
0.363576
0.366016
0.36844
0.370847
0.373239
0.375613
0.377971
0.380312
0.382637
0.384945
0.387237
0.389512
0.39177
0.394013
0.396239
0.398448
0.400642
0.40282
0.404982
0.407128
0.409259
0.411374
0.413473
0.415558
0.417627
0.419682
0.421721
0.423747
0.425756
0.427755
0.429734
0.431709
0.433656
0.435613
0.437525
0.439468
0.441335
0.443254
0.445094
0.446978
0.448836
0.450719
0.452605
0.454502
0.45642
0.458338
0.460276
0.462205
0.464136
0.466032
0.467871
0.469639
0.47126
0.472724
0.473938
0.474835
0.475408
0.475418
0.475061
0.473928
0.472249
0.469506
0.465974
0.461078
0.454781
0.446588
0.436441
0.422777
0.406161
0.384649
0.358813
0.32672
0.289266
0.245658
0.196404
0.146756
0.0956502
0.055725
0.0259795
0.00804517
-0.00131499
-0.00252144
-0.0014368
0.00529329
0.00555688
0.00614068
0.0048746
0.00526026
0.00700714
0.0121498
0.0196544
0.0325499
0.0455338
0.0591531
0.0712898
0.0823302
0.091824
0.100139
0.107292
0.113547
0.118977
0.123762
0.128069
0.131927
0.13547
0.138714
0.141733
0.144554
0.147213
0.149742
0.152157
0.154458
0.156667
0.158784
0.160826
0.162792
0.164691
0.16653
0.168306
0.170026
0.171711
0.17335
0.174968
0.17654
0.178115
0.179622
0.181191
0.182629
0.184286
0.185622
0.187549
0.189185
0.191099
0.192941
0.194915
0.196888
0.198937
0.201011
0.203137
0.205296
0.207496
0.20973
0.212001
0.214303
0.216639
0.219004
0.221399
0.223822
0.226272
0.228747
0.231246
0.233769
0.236313
0.238877
0.241461
0.244063
0.246681
0.249315
0.251964
0.254626
0.257301
0.259986
0.262682
0.265386
0.268099
0.270818
0.273543
0.276272
0.279006
0.281742
0.28448
0.287219
0.289958
0.292695
0.295431
0.298164
0.300893
0.303618
0.306338
0.309051
0.311758
0.314457
0.317148
0.31983
0.322503
0.325165
0.327817
0.330457
0.333086
0.335702
0.338305
0.340896
0.343472
0.346035
0.348583
0.351117
0.353635
0.356138
0.358626
0.361098
0.363554
0.365994
0.368417
0.370825
0.373216
0.37559
0.377948
0.380289
0.382614
0.384922
0.387213
0.389488
0.391747
0.393989
0.396215
0.398425
0.400618
0.402796
0.404958
0.407105
0.409235
0.411351
0.41345
0.415535
0.417605
0.41966
0.421699
0.423725
0.425735
0.427734
0.429713
0.431689
0.433636
0.435594
0.437505
0.439451
0.441314
0.443241
0.445084
0.446974
0.448835
0.450722
0.452612
0.454512
0.456432
0.458351
0.460289
0.462215
0.464141
0.466028
0.467855
0.469606
0.471205
0.472642
0.473823
0.474683
0.475211
0.475173
0.474757
0.473559
0.471801
0.468969
0.465327
0.460301
0.453845
0.445463
0.435079
0.421164
0.404265
0.382477
0.356381
0.324107
0.286618
0.2432
0.194554
0.145817
0.0959873
0.0570133
0.0277013
0.00978223
0.000185872
-0.00136967
-0.000590845
0.00595049
0.00615517
0.00675245
0.00558643
0.00605299
0.00781692
0.01286
0.0201287
0.0327393
0.0455078
0.0589589