/*--------------------------------*- C++ -*----------------------------------*\
| =========                 |                                                 |
| \\      /  F ield         | OpenFOAM: The Open Source CFD Toolbox           |
|  \\    /   O peration     | Version:  v2006                                 |
|   \\  /    A nd           | Website:  www.openfoam.com                      |
|    \\/     M anipulation  |                                                 |
\*---------------------------------------------------------------------------*/
FoamFile
{
    version     2.0;
    format      ascii;
    class       surfaceScalarField;
    location    "2000";
    object      phi;
}
// * * * * * * * * * * * * * * * * * * * * * * * * * * * * * * * * * * * * * //

dimensions      [0 3 -1 0 0 0 0];
oriented        oriented;


internalField   nonuniform List<scalar> 
79600
(
2.54226e-06
6.45318e-08
2.54082e-06
1.44127e-09
2.49725e-06
4.35727e-08
2.32952e-06
1.67732e-07
1.99652e-06
3.33002e-07
1.50473e-06
4.91789e-07
9.4007e-07
5.64656e-07
4.44515e-07
4.95555e-07
1.16752e-07
3.27763e-07
-8.33399e-08
2.00092e-07
-1.96222e-07
1.12882e-07
-2.59544e-07
6.3322e-08
-2.92699e-07
3.31551e-08
-3.09742e-07
1.70435e-08
-3.17579e-07
7.83606e-09
-3.21635e-07
4.05615e-09
-3.24973e-07
3.33826e-09
-3.29316e-07
4.34299e-09
-3.33379e-07
4.06328e-09
-3.36617e-07
3.2377e-09
-3.39611e-07
2.99377e-09
-3.4217e-07
2.55956e-09
-3.44691e-07
2.52086e-09
-3.46994e-07
2.30287e-09
-3.48939e-07
1.94471e-09
-3.50055e-07
1.11624e-09
-3.49914e-07
-1.40962e-10
-3.49171e-07
-7.43143e-10
-3.4873e-07
-4.41322e-10
-3.4866e-07
-6.91872e-11
-3.48969e-07
3.08799e-10
-3.49542e-07
5.73207e-10
-3.50487e-07
9.44268e-10
-3.51813e-07
1.32587e-09
-3.53905e-07
2.09249e-09
-3.57477e-07
3.57247e-09
-3.62253e-07
4.77572e-09
-3.6735e-07
5.09628e-09
-3.72627e-07
5.27709e-09
-3.78004e-07
5.37765e-09
-3.83848e-07
5.84396e-09
-3.90279e-07
6.43099e-09
-3.98429e-07
8.14933e-09
-4.08596e-07
1.0167e-08
-4.2494e-07
1.63445e-08
-4.52416e-07
2.74755e-08
-5.05891e-07
5.34752e-08
-5.44807e-07
3.89159e-08
-5.75812e-07
3.10048e-08
-6.00996e-07
2.51846e-08
-6.24035e-07
2.30387e-08
-6.44525e-07
2.04901e-08
-6.63613e-07
1.90881e-08
-6.81107e-07
1.74934e-08
-6.97447e-07
1.63402e-08
-7.1258e-07
1.5133e-08
-7.26694e-07
1.41142e-08
-7.3979e-07
1.30954e-08
-7.51956e-07
1.21667e-08
-7.63211e-07
1.12547e-08
-7.73603e-07
1.03921e-08
-7.83153e-07
9.54983e-09
-7.91892e-07
8.73917e-09
-7.9984e-07
7.94826e-09
-8.07021e-07
7.18084e-09
-8.13453e-07
6.43175e-09
-8.19155e-07
5.70214e-09
-8.24145e-07
4.98954e-09
-8.28439e-07
4.29413e-09
-8.32054e-07
3.61462e-09
-8.35004e-07
2.9509e-09
-8.37307e-07
2.30225e-09
-8.38975e-07
1.66854e-09
-8.40025e-07
1.04957e-09
-8.40471e-07
4.45814e-10
-8.40326e-07
-1.44581e-10
-8.39603e-07
-7.23383e-10
-8.38313e-07
-1.29022e-09
-8.36468e-07
-1.84461e-09
-8.34082e-07
-2.3865e-09
-8.31166e-07
-2.91565e-09
-8.27734e-07
-3.43224e-09
-8.23797e-07
-3.93663e-09
-8.19369e-07
-4.42759e-09
-8.14463e-07
-4.90635e-09
-8.09091e-07
-5.3725e-09
-8.03266e-07
-5.82485e-09
-7.97002e-07
-6.26418e-09
-7.90311e-07
-6.69095e-09
-7.83207e-07
-7.10401e-09
-7.75704e-07
-7.50236e-09
-7.67816e-07
-7.8884e-09
-7.59556e-07
-8.26026e-09
-7.50939e-07
-8.61665e-09
-7.41979e-07
-8.96032e-09
-7.3269e-07
-9.28917e-09
-7.23087e-07
-9.60212e-09
-7.13186e-07
-9.90097e-09
-7.03001e-07
-1.01859e-08
-6.92547e-07
-1.04539e-08
-6.81839e-07
-1.07078e-08
-6.70892e-07
-1.09471e-08
-6.59723e-07
-1.11691e-08
-6.48346e-07
-1.1377e-08
-6.36775e-07
-1.15701e-08
-6.2503e-07
-1.17459e-08
-6.13123e-07
-1.1906e-08
-6.01071e-07
-1.20528e-08
-5.88889e-07
-1.21814e-08
-5.76594e-07
-1.22951e-08
-5.64199e-07
-1.2395e-08
-5.51722e-07
-1.24776e-08
-5.39177e-07
-1.25447e-08
-5.26579e-07
-1.25976e-08
-5.13943e-07
-1.26359e-08
-5.01286e-07
-1.26567e-08
-4.88622e-07
-1.26641e-08
-4.75965e-07
-1.26574e-08
-4.63331e-07
-1.26341e-08
-4.50733e-07
-1.25977e-08
-4.38185e-07
-1.25482e-08
-4.25703e-07
-1.24822e-08
-4.13299e-07
-1.24039e-08
-4.00986e-07
-1.2313e-08
-3.88779e-07
-1.22064e-08
-3.76691e-07
-1.20886e-08
-3.64733e-07
-1.19582e-08
-3.52919e-07
-1.18138e-08
-3.41261e-07
-1.16576e-08
-3.2977e-07
-1.14911e-08
-3.18458e-07
-1.13118e-08
-3.07338e-07
-1.11206e-08
-2.96418e-07
-1.09201e-08
-2.8571e-07
-1.07071e-08
-2.75226e-07
-1.04842e-08
-2.64974e-07
-1.0252e-08
-2.54966e-07
-1.00084e-08
-2.45213e-07
-9.75236e-09
-2.35727e-07
-9.48675e-09
-2.2652e-07
-9.20716e-09
-2.17605e-07
-8.91456e-09
-2.09005e-07
-8.59961e-09
-2.00731e-07
-8.27396e-09
-1.92827e-07
-7.90445e-09
-1.85295e-07
-7.53231e-09
-1.78213e-07
-7.08168e-09
-1.71553e-07
-6.65969e-09
-1.65455e-07
-6.09789e-09
-1.59765e-07
-5.69002e-09
-1.54708e-07
-5.05704e-09
-1.49721e-07
-4.98692e-09
-1.44942e-07
-4.77968e-09
-1.3788e-07
-7.06127e-09
-1.29219e-07
-8.66143e-09
-1.22821e-07
-6.39823e-09
-1.18522e-07
-4.29864e-09
-1.13466e-07
-5.05565e-09
-1.07544e-07
-5.9227e-09
-1.00205e-07
-7.33835e-09
-9.12698e-08
-8.93541e-09
-8.05903e-08
-1.06795e-08
-6.78049e-08
-1.27854e-08
-5.28558e-08
-1.49491e-08
-3.52837e-08
-1.75721e-08
-1.48472e-08
-2.04366e-08
9.32299e-09
-2.41702e-08
3.78824e-08
-2.85595e-08
7.11968e-08
-3.33143e-08
1.10249e-07
-3.90524e-08
1.5526e-07
-4.50104e-08
2.07208e-07
-5.19483e-08
2.66376e-07
-5.9168e-08
3.32565e-07
-6.61887e-08
4.06179e-07
-7.36148e-08
4.82902e-07
-7.67228e-08
5.64374e-07
-8.14717e-08
6.48944e-07
-8.45698e-08
7.38959e-07
-9.00154e-08
8.3069e-07
-9.17311e-08
9.28079e-07
-9.73883e-08
1.03207e-06
-1.03993e-07
1.14204e-06
-1.09965e-07
1.26404e-06
-1.22003e-07
1.417e-06
-1.52962e-07
1.60208e-06
-1.85073e-07
1.83236e-06
-2.30281e-07
2.11246e-06
-2.80106e-07
2.45901e-06
-3.46544e-07
2.87758e-06
-4.18575e-07
3.3937e-06
-5.16122e-07
4.01395e-06
-6.2025e-07
4.69276e-06
-6.78805e-07
5.30822e-06
-6.15458e-07
5.52779e-06
-2.19574e-07
5.25464e-06
2.73154e-07
4.66708e-06
5.87557e-07
3.98653e-06
6.80546e-07
3.36584e-06
6.20696e-07
2.89255e-06
4.73294e-07
2.85756e-07
7.80288e-06
3.07054e-07
7.76201e-06
4.23033e-08
7.60029e-06
2.05298e-07
7.09423e-06
6.73789e-07
6.11635e-06
1.31088e-06
4.68582e-06
1.92232e-06
3.02929e-06
2.22118e-06
1.54771e-06
1.97714e-06
5.22235e-07
1.35323e-06
-1.20587e-07
8.42914e-07
-4.99317e-07
4.91612e-07
-7.16938e-07
2.80943e-07
-8.37557e-07
1.53773e-07
-9.02674e-07
8.21606e-08
-9.36537e-07
4.1699e-08
-9.55534e-07
2.30539e-08
-9.70372e-07
1.81761e-08
-9.86262e-07
2.02332e-08
-1.0008e-06
1.8605e-08
-1.01258e-06
1.5018e-08
-1.02305e-06
1.34556e-08
-1.0321e-06
1.1612e-08
-1.04062e-06
1.10448e-08
-1.0484e-06
1.00794e-08
-1.05497e-06
8.51302e-09
-1.0591e-06
5.24926e-09
-1.05969e-06
4.49941e-10
-1.05849e-06
-1.94722e-09
-1.05794e-06
-9.83493e-10
-1.05851e-06
5.00365e-10
-1.06018e-06
1.97803e-09
-1.06275e-06
3.14344e-09
-1.06645e-06
4.64474e-09
-1.0714e-06
6.26931e-09
-1.07866e-06
9.35101e-09
-1.09009e-06
1.50041e-08
-1.10499e-06
1.96812e-08
-1.12113e-06
2.12278e-08
-1.13783e-06
2.1979e-08
-1.15513e-06
2.26766e-08
-1.17367e-06
2.439e-08
-1.19463e-06
2.73873e-08
-1.22011e-06
3.3628e-08
-1.25357e-06
4.36259e-08
-1.30321e-06
6.59861e-08
-1.38888e-06
1.13152e-07
-1.53586e-06
2.00454e-07
-1.65273e-06
1.5578e-07
-1.74395e-06
1.22226e-07
-1.82087e-06
1.0211e-07
-1.88956e-06
9.17283e-08
-1.9516e-06
8.2524e-08
-2.00871e-06
7.62024e-08
-2.06139e-06
7.01705e-08
-2.11032e-06
6.52692e-08
-2.15574e-06
6.05534e-08
-2.19798e-06
5.63535e-08
-2.23719e-06
5.23062e-08
-2.27355e-06
4.85303e-08
-2.30718e-06
4.48803e-08
-2.33818e-06
4.1395e-08
-2.36665e-06
3.80137e-08
-2.39265e-06
3.47474e-08
-2.41627e-06
3.15694e-08
-2.43758e-06
2.84814e-08
-2.45661e-06
2.54709e-08
-2.47345e-06
2.25372e-08
-2.48813e-06
1.96738e-08
-2.50072e-06
1.68791e-08
-2.51125e-06
1.41493e-08
-2.51979e-06
1.14831e-08
-2.52636e-06
8.87815e-09
-2.53103e-06
6.33349e-09
-2.53383e-06
3.84874e-09
-2.53481e-06
1.42499e-09
-2.534e-06
-9.45196e-10
-2.53146e-06
-3.26852e-09
-2.52721e-06
-5.54324e-09
-2.52128e-06
-7.76771e-09
-2.51373e-06
-9.9416e-09
-2.50458e-06
-1.20643e-08
-2.49388e-06
-1.41361e-08
-2.48165e-06
-1.61589e-08
-2.46795e-06
-1.81274e-08
-2.45281e-06
-2.00467e-08
-2.43627e-06
-2.19153e-08
-2.41837e-06
-2.37283e-08
-2.39914e-06
-2.54888e-08
-2.37863e-06
-2.71988e-08
-2.35689e-06
-2.88536e-08
-2.33394e-06
-3.04492e-08
-2.30983e-06
-3.19951e-08
-2.28461e-06
-3.34843e-08
-2.25831e-06
-3.4911e-08
-2.23099e-06
-3.62867e-08
-2.20267e-06
-3.76028e-08
-2.17342e-06
-3.88551e-08
-2.14327e-06
-4.00506e-08
-2.11227e-06
-4.11902e-08
-2.08046e-06
-4.22621e-08
-2.04789e-06
-4.32766e-08
-2.0146e-06
-4.42333e-08
-1.98065e-06
-4.51202e-08
-1.94608e-06
-4.59503e-08
-1.91093e-06
-4.6721e-08
-1.87525e-06
-4.74226e-08
-1.8391e-06
-4.80609e-08
-1.8025e-06
-4.86456e-08
-1.76553e-06
-4.91579e-08
-1.72821e-06
-4.96095e-08
-1.6906e-06
-5.0006e-08
-1.65275e-06
-5.03335e-08
-1.61469e-06
-5.05981e-08
-1.57648e-06
-5.08063e-08
-1.53816e-06
-5.0955e-08
-1.49979e-06
-5.10345e-08
-1.46139e-06
-5.10589e-08
-1.42302e-06
-5.1028e-08
-1.38473e-06
-5.09296e-08
-1.34655e-06
-5.07786e-08
-1.30852e-06
-5.0575e-08
-1.2707e-06
-5.03051e-08
-1.23311e-06
-4.99859e-08
-1.19581e-06
-4.96159e-08
-1.15883e-06
-4.91826e-08
-1.12222e-06
-4.87042e-08
-1.086e-06
-4.81755e-08
-1.05023e-06
-4.759e-08
-1.01493e-06
-4.69567e-08
-9.80135e-07
-4.62825e-08
-9.4589e-07
-4.55561e-08
-9.12229e-07
-4.47819e-08
-8.79179e-07
-4.39697e-08
-8.46779e-07
-4.31074e-08
-8.15059e-07
-4.22045e-08
-7.84047e-07
-4.12641e-08
-7.53778e-07
-4.02768e-08
-7.2429e-07
-3.92402e-08
-6.95616e-07
-3.81616e-08
-6.67791e-07
-3.70312e-08
-6.40867e-07
-3.58393e-08
-6.14895e-07
-3.45709e-08
-5.89933e-07
-3.32366e-08
-5.66075e-07
-3.17617e-08
-5.43387e-07
-3.0221e-08
-5.22015e-07
-2.84534e-08
-5.02004e-07
-2.66706e-08
-4.83569e-07
-2.4533e-08
-4.66541e-07
-2.27175e-08
-4.51155e-07
-2.04439e-08
-4.36339e-07
-1.98023e-08
-4.21799e-07
-1.93196e-08
-4.01826e-07
-2.70346e-08
-3.78194e-07
-3.22936e-08
-3.59739e-07
-2.48526e-08
-3.46021e-07
-1.80166e-08
-3.30258e-07
-2.08193e-08
-3.11465e-07
-2.47152e-08
-2.88356e-07
-3.04478e-08
-2.60224e-07
-3.70672e-08
-2.26581e-07
-4.43224e-08
-1.86473e-07
-5.28927e-08
-1.39502e-07
-6.19208e-08
-8.44501e-08
-7.26236e-08
-2.0298e-08
-8.45887e-08
5.53718e-08
-9.98399e-08
1.44385e-07
-1.17573e-07
2.48099e-07
-1.37028e-07
3.68999e-07
-1.59953e-07
5.08103e-07
-1.84114e-07
6.67985e-07
-2.11831e-07
8.49158e-07
-2.4034e-07
1.05171e-06
-2.68737e-07
1.2747e-06
-2.96609e-07
1.50853e-06
-3.10551e-07
1.75514e-06
-3.28084e-07
2.01265e-06
-3.42078e-07
2.28451e-06
-3.61875e-07
2.56375e-06
-3.70971e-07
2.85918e-06
-3.92817e-07
3.17508e-06
-4.19893e-07
3.50972e-06
-4.44611e-07
3.88531e-06
-4.97587e-07
4.34937e-06
-6.17029e-07
4.91348e-06
-7.49182e-07
5.60855e-06
-9.25345e-07
6.45519e-06
-1.12675e-06
7.49378e-06
-1.38514e-06
8.74623e-06
-1.67103e-06
1.02769e-05
-2.04684e-06
1.20881e-05
-2.43145e-06
1.40464e-05
-2.63711e-06
1.57672e-05
-2.33621e-06
1.63914e-05
-8.4377e-07
1.56451e-05
1.0195e-06
1.40076e-05
2.22498e-06
1.20743e-05
2.6139e-06
1.02862e-05
2.4088e-06
8.89456e-06
1.8649e-06
1.13491e-06
1.33334e-05
7.68103e-07
1.32175e-05
1.58201e-07
1.29121e-05
5.10669e-07
1.20616e-05
1.52426e-06
1.04519e-05
2.92065e-06
8.10835e-06
4.26585e-06
5.37376e-06
4.95577e-06
2.88554e-06
4.46537e-06
1.10829e-06
3.13047e-06
-3.14994e-08
1.98271e-06
-7.21355e-07
1.18147e-06
-1.12555e-06
6.85136e-07
-1.35641e-06
3.84639e-07
-1.48483e-06
2.10575e-07
-1.5551e-06
1.11974e-07
-1.5958e-06
6.37476e-08
-1.6265e-06
4.88831e-08
-1.65668e-06
5.04062e-08
-1.68386e-06
4.57868e-08
-1.70601e-06
3.71732e-08
-1.72535e-06
3.27889e-08
-1.74209e-06
2.83605e-08
-1.75755e-06
2.65008e-08
-1.77161e-06
2.41401e-08
-1.78354e-06
2.04408e-08
-1.79148e-06
1.31854e-08
-1.7937e-06
2.6695e-09
-1.79285e-06
-2.79537e-09
-1.79281e-06
-1.01755e-09
-1.79456e-06
2.25217e-09
-1.79811e-06
5.52565e-09
-1.80323e-06
8.26385e-09
-1.81025e-06
1.16652e-08
-1.81942e-06
1.54337e-08
-1.83241e-06
2.23461e-08
-1.85211e-06
3.47051e-08
-1.87754e-06
4.51095e-08
-1.90531e-06
4.89974e-08
-1.93417e-06
5.08416e-08
-1.96433e-06
5.28324e-08
-1.99661e-06
5.6673e-08
-2.03347e-06
6.42476e-08
-2.07776e-06
7.79141e-08
-2.13682e-06
1.02687e-07
-2.22187e-06
1.51033e-07
-2.36757e-06
2.58853e-07
-2.60195e-06
4.34835e-07
-2.79622e-06
3.50048e-07
-2.94795e-06
2.73956e-07
-3.07785e-06
2.32016e-07
-3.19288e-06
2.06758e-07
-3.29731e-06
1.86953e-07
-3.39303e-06
1.71916e-07
-3.48147e-06
1.58617e-07
-3.56343e-06
1.47227e-07
-3.63955e-06
1.36669e-07
-3.71023e-06
1.27036e-07
-3.77583e-06
1.17905e-07
-3.8366e-06
1.09299e-07
-3.89275e-06
1.01039e-07
-3.94448e-06
9.31178e-08
-3.99192e-06
8.54567e-08
-4.03522e-06
7.8044e-08
-4.07449e-06
7.08413e-08
-4.10985e-06
6.38386e-08
-4.14139e-06
5.70161e-08
-4.16922e-06
5.03666e-08
-4.19343e-06
4.38785e-08
-4.21409e-06
3.75462e-08
-4.23131e-06
3.13625e-08
-4.24515e-06
2.53233e-08
-4.25569e-06
1.9424e-08
-4.26302e-06
1.3662e-08
-4.26721e-06
8.03666e-09
-4.26833e-06
2.54948e-09
-4.26646e-06
-2.81668e-09
-4.26165e-06
-8.07616e-09
-4.25397e-06
-1.32245e-08
-4.24348e-06
-1.82584e-08
-4.23025e-06
-2.31772e-08
-4.21433e-06
-2.79797e-08
-4.1958e-06
-3.26664e-08
-4.17472e-06
-3.72418e-08
-4.15115e-06
-4.1694e-08
-4.12516e-06
-4.60342e-08
-4.09682e-06
-5.02593e-08
-4.06619e-06
-5.43583e-08
-4.03334e-06
-5.83379e-08
-3.99834e-06
-6.22028e-08
-3.96125e-06
-6.59428e-08
-3.92215e-06
-6.95485e-08
-3.8811e-06
-7.3041e-08
-3.83818e-06
-7.64054e-08
-3.79346e-06
-7.9628e-08
-3.74702e-06
-8.27348e-08
-3.69891e-06
-8.57068e-08
-3.64923e-06
-8.85342e-08
-3.59805e-06
-9.12326e-08
-3.54544e-06
-9.38047e-08
-3.49148e-06
-9.62232e-08
-3.43624e-06
-9.85119e-08
-3.3798e-06
-1.00669e-07
-3.32225e-06
-1.02669e-07
-3.26367e-06
-1.0454e-07
-3.20411e-06
-1.06276e-07
-3.14368e-06
-1.07856e-07
-3.08244e-06
-1.09293e-07
-3.02048e-06
-1.10608e-07
-2.95788e-06
-1.1176e-07
-2.89472e-06
-1.12773e-07
-2.83106e-06
-1.13663e-07
-2.767e-06
-1.14396e-07
-2.70261e-06
-1.14986e-07
-2.63797e-06
-1.15449e-07
-2.57314e-06
-1.15777e-07
-2.50823e-06
-1.15948e-07
-2.4433e-06
-1.15994e-07
-2.37841e-06
-1.15916e-07
-2.31365e-06
-1.15684e-07
-2.2491e-06
-1.15333e-07
-2.18481e-06
-1.14863e-07
-2.12087e-06
-1.14243e-07
-2.05735e-06
-1.13511e-07
-1.9943e-06
-1.12663e-07
-1.93181e-06
-1.11673e-07
-1.86994e-06
-1.10579e-07
-1.80874e-06
-1.09372e-07
-1.74829e-06
-1.08036e-07
-1.68866e-06
-1.06591e-07
-1.62989e-06
-1.05053e-07
-1.57205e-06
-1.03396e-07
-1.5152e-06
-1.01631e-07
-1.45939e-06
-9.97792e-08
-1.40468e-06
-9.78133e-08
-1.35113e-06
-9.57544e-08
-1.29879e-06
-9.36102e-08
-1.24771e-06
-9.13578e-08
-1.19795e-06
-8.89944e-08
-1.14958e-06
-8.65313e-08
-1.10266e-06
-8.39552e-08
-1.05727e-06
-8.12295e-08
-1.0135e-06
-7.83438e-08
-9.71447e-07
-7.5285e-08
-9.31265e-07
-7.19445e-08
-8.93088e-07
-6.8398e-08
-8.5711e-07
-6.44306e-08
-8.23486e-07
-6.02945e-08
-7.92445e-07
-5.55746e-08
-7.63889e-07
-5.12736e-08
-7.37922e-07
-4.64102e-08
-7.13178e-07
-4.45468e-08
-6.88738e-07
-4.37595e-08
-6.56626e-07
-5.91461e-08
-6.19425e-07
-6.9495e-08
-5.89234e-07
-5.50435e-08
-5.65389e-07
-4.18613e-08
-5.38159e-07
-4.805e-08
-5.05476e-07
-5.73975e-08
-4.65398e-07
-7.05263e-08
-4.16625e-07
-8.584e-08
-3.58274e-07
-1.02673e-07
-2.88822e-07
-1.22345e-07
-2.07407e-07
-1.43336e-07
-1.12057e-07
-1.67973e-07
-7.90111e-10
-1.95856e-07
1.30312e-07
-2.30943e-07
2.84199e-07
-2.71459e-07
4.63323e-07
-3.16152e-07
6.71497e-07
-3.68127e-07
9.10668e-07
-4.23284e-07
1.18478e-06
-4.85945e-07
1.49443e-06
-5.49984e-07
1.84e-06
-6.14309e-07
2.21835e-06
-6.74964e-07
2.61588e-06
-7.08081e-07
3.03402e-06
-7.46225e-07
3.47162e-06
-7.79677e-07
3.93202e-06
-8.22272e-07
4.40677e-06
-8.45718e-07
4.9087e-06
-8.94745e-07
5.4458e-06
-9.56996e-07
6.01646e-06
-1.01527e-06
6.66103e-06
-1.14216e-06
7.45186e-06
-1.40785e-06
8.4133e-06
-1.71063e-06
9.59121e-06
-2.10326e-06
1.10239e-05
-2.55947e-06
1.27711e-05
-3.13231e-06
1.48713e-05
-3.77122e-06
1.74179e-05
-4.59345e-06
2.03945e-05
-5.40806e-06
2.35718e-05
-5.8144e-06
2.63019e-05
-5.06632e-06
2.72912e-05
-1.83303e-06
2.61215e-05
2.18923e-06
2.35268e-05
4.81964e-06
2.04207e-05
5.71995e-06
1.75127e-05
5.3169e-06
1.52159e-05
4.16163e-06
2.5564e-06
1.91433e-05
1.48286e-06
1.89154e-05
3.8607e-07
1.84425e-05
9.8363e-07
1.7241e-05
2.72573e-06
1.50131e-05
5.14853e-06
1.17824e-05
7.49658e-06
7.98594e-06
8.75223e-06
4.47248e-06
7.97882e-06
1.89352e-06
5.70944e-06
2.00946e-07
3.67528e-06
-8.47239e-07
2.22965e-06
-1.47366e-06
1.31155e-06
-1.83996e-06
7.50943e-07
-2.04917e-06
4.19788e-07
-2.16778e-06
2.30579e-07
-2.23821e-06
1.34185e-07
-2.29001e-06
1.00678e-07
-2.33792e-06
9.83149e-08
-2.38037e-06
8.82421e-08
-2.41507e-06
7.18734e-08
-2.44501e-06
6.27235e-08
-2.47087e-06
5.42197e-08
-2.4944e-06
5.00364e-08
-2.51571e-06
4.54476e-08
-2.53387e-06
3.86024e-08
-2.54652e-06
2.58303e-08
-2.55136e-06
7.50773e-09
-2.55177e-06
-2.38067e-09
-2.55297e-06
1.84639e-10
-2.55654e-06
5.81693e-09
-2.56258e-06
1.1564e-08
-2.57087e-06
1.65605e-08
-2.58186e-06
2.26532e-08
-2.59593e-06
2.94991e-08
-2.61529e-06
4.17133e-08
-2.64376e-06
6.31726e-08
-2.6802e-06
8.15524e-08
-2.72026e-06
8.90503e-08
-2.7621e-06
9.26837e-08
-2.80607e-06
9.68015e-08
-2.85325e-06
1.03852e-07
-2.90732e-06
1.18325e-07
-2.97213e-06
1.42723e-07
-3.0587e-06
1.89251e-07
-3.18165e-06
2.7399e-07
-3.38762e-06
4.64816e-07
-3.70563e-06
7.52849e-07
-3.97546e-06
6.19873e-07
-4.18836e-06
4.86856e-07
-4.37192e-06
4.15584e-07
-4.53411e-06
3.68946e-07
-4.68156e-06
3.34402e-07
-4.81647e-06
3.06822e-07
-4.94115e-06
2.83301e-07
-5.05655e-06
2.62627e-07
-5.16369e-06
2.43808e-07
-5.26309e-06
2.26434e-07
-5.35528e-06
2.10102e-07
-5.44061e-06
1.9463e-07
-5.51941e-06
1.79833e-07
-5.59191e-06
1.65617e-07
-5.65834e-06
1.51888e-07
-5.71889e-06
1.38595e-07
-5.77374e-06
1.25688e-07
-5.82304e-06
1.13137e-07
-5.86693e-06
1.00913e-07
-5.90557e-06
8.89999e-08
-5.93907e-06
7.73781e-08
-5.96756e-06
6.60363e-08
-5.99116e-06
5.49628e-08
-6.00998e-06
4.41492e-08
-6.02415e-06
3.35877e-08
-6.03376e-06
2.32734e-08
-6.03893e-06
1.32057e-08
-6.03976e-06
3.38526e-09
-6.03636e-06
-6.21927e-09
-6.0288e-06
-1.56317e-08
-6.01719e-06
-2.4843e-08
-6.0016e-06
-3.38485e-08
-5.98213e-06
-4.26469e-08
-5.95887e-06
-5.12367e-08
-5.93192e-06
-5.96178e-08
-5.90136e-06
-6.77994e-08
-5.86729e-06
-7.57596e-08
-5.82981e-06
-8.35185e-08
-5.789e-06
-9.1071e-08
-5.74496e-06
-9.83972e-08
-5.69779e-06
-1.05509e-07
-5.64758e-06
-1.12415e-07
-5.59442e-06
-1.19097e-07
-5.53843e-06
-1.25538e-07
-5.4797e-06
-1.31776e-07
-5.41832e-06
-1.37785e-07
-5.35441e-06
-1.43539e-07
-5.28806e-06
-1.49086e-07
-5.21937e-06
-1.54391e-07
-5.14847e-06
-1.59438e-07
-5.07545e-06
-1.64253e-07
-5.00041e-06
-1.68842e-07
-4.92348e-06
-1.73156e-07
-4.84475e-06
-1.77237e-07
-4.76434e-06
-1.81083e-07
-4.68236e-06
-1.84648e-07
-4.59892e-06
-1.87981e-07
-4.51412e-06
-1.91074e-07
-4.42809e-06
-1.93887e-07
-4.34094e-06
-1.96442e-07
-4.25277e-06
-1.98781e-07
-4.1637e-06
-2.00827e-07
-4.07385e-06
-2.02625e-07
-3.98331e-06
-2.04202e-07
-3.89221e-06
-2.05499e-07
-3.80065e-06
-2.0654e-07
-3.70875e-06
-2.07353e-07
-3.6166e-06
-2.07924e-07
-3.52434e-06
-2.08216e-07
-3.43205e-06
-2.08282e-07
-3.33984e-06
-2.08126e-07
-3.24783e-06
-2.07695e-07
-3.15611e-06
-2.07051e-07
-3.06478e-06
-2.06194e-07
-2.97395e-06
-2.05067e-07
-2.88373e-06
-2.0374e-07
-2.79418e-06
-2.02206e-07
-2.70544e-06
-2.00416e-07
-2.61758e-06
-1.98441e-07
-2.53069e-06
-1.96262e-07
-2.44487e-06
-1.93851e-07
-2.36022e-06
-1.91246e-07
-2.2768e-06
-1.88473e-07
-2.19471e-06
-1.85488e-07
-2.11403e-06
-1.82307e-07
-2.03484e-06
-1.78969e-07
-1.95723e-06
-1.75427e-07
-1.88126e-06
-1.71717e-07
-1.80702e-06
-1.67853e-07
-1.73459e-06
-1.63792e-07
-1.66405e-06
-1.59533e-07
-1.59549e-06
-1.5509e-07
-1.529e-06
-1.50447e-07
-1.4647e-06
-1.45527e-07
-1.40271e-06
-1.40331e-07
-1.3432e-06
-1.34803e-07
-1.28634e-06
-1.28804e-07
-1.23235e-06
-1.22385e-07
-1.18148e-06
-1.153e-07
-1.13398e-06
-1.07792e-07
-1.09011e-06
-9.9447e-08
-1.04982e-06
-9.15619e-08
-1.01311e-06
-8.31239e-08
-9.78319e-07
-7.9337e-08
-9.43998e-07
-7.80802e-08
-9.0052e-07
-1.02624e-07
-8.51002e-07
-1.19013e-07
-8.09404e-07
-9.66411e-08
-7.74856e-07
-7.64096e-08
-7.35327e-07
-8.75796e-08
-6.87708e-07
-1.05016e-07
-6.29364e-07
-1.2887e-07
-5.58392e-07
-1.56813e-07
-4.73466e-07
-1.87599e-07
-3.72471e-07
-2.2334e-07
-2.54028e-07
-2.61779e-07
-1.15341e-07
-3.0666e-07
4.66394e-08
-3.57836e-07
2.37316e-07
-4.21619e-07
4.60731e-07
-4.94874e-07
7.20444e-07
-5.75865e-07
1.02152e-06
-6.69207e-07
1.36685e-06
-7.68611e-07
1.76156e-06
-8.80655e-07
2.20623e-06
-9.94658e-07
2.70129e-06
-1.10936e-06
3.24117e-06
-1.21485e-06
3.80864e-06
-1.27556e-06
4.40485e-06
-1.34243e-06
5.02925e-06
-1.40408e-06
5.68505e-06
-1.47807e-06
6.36289e-06
-1.52356e-06
7.07974e-06
-1.6116e-06
7.84712e-06
-1.72437e-06
8.66532e-06
-1.83347e-06
9.59333e-06
-2.07017e-06
1.07267e-05
-2.54121e-06
1.21022e-05
-3.08611e-06
1.37803e-05
-3.78136e-06
1.5816e-05
-4.5952e-06
1.82861e-05
-5.60243e-06
2.12437e-05
-6.72876e-06
2.48018e-05
-8.15156e-06
2.89142e-05
-9.52048e-06
3.32454e-05
-1.01456e-05
3.68996e-05
-8.72056e-06
3.82197e-05
-3.15308e-06
3.66788e-05
3.73016e-06
3.32194e-05
8.27896e-06
2.9024e-05
9.9154e-06
2.50461e-05
9.29484e-06
2.18624e-05
7.34528e-06
4.56075e-06
2.52404e-05
2.48501e-06
2.48643e-05
7.62178e-07
2.42e-05
1.648e-06
2.26409e-05
4.28479e-06
1.98083e-05
7.9811e-06
1.5716e-05
1.15889e-05
1.08755e-05
1.35928e-05
6.32186e-06
1.25325e-05
2.89402e-06
9.13728e-06
5.92732e-07
5.97657e-06
-8.63111e-07
3.6855e-06
-1.75012e-06
2.19856e-06
-2.27957e-06
1.28039e-06
-2.58911e-06
7.29327e-07
-2.76952e-06
4.10997e-07
-2.87894e-06
2.43597e-07
-2.95793e-06
1.79673e-07
-3.02767e-06
1.68054e-07
-3.08848e-06
1.49051e-07
-3.13823e-06
1.21624e-07
-3.18077e-06
1.05263e-07
-3.21738e-06
9.08265e-08
-3.25033e-06
8.29839e-08
-3.27999e-06
7.51167e-08
-3.30539e-06
6.39943e-08
-3.32374e-06
4.41842e-08
-3.33227e-06
1.60331e-08
-3.33494e-06
2.93191e-10
-3.3382e-06
3.44425e-09
-3.34429e-06
1.19091e-08
-3.3535e-06
2.07774e-08
-3.36567e-06
2.87229e-08
-3.38133e-06
3.8317e-08
-3.40103e-06
4.92017e-08
-3.42747e-06
6.81529e-08
-3.46528e-06
1.00981e-07
-3.5133e-06
1.29567e-07
-3.56633e-06
1.42081e-07
-3.62201e-06
1.48369e-07
-3.6808e-06
1.5559e-07
-3.74408e-06
1.67131e-07
-3.81674e-06
1.90982e-07
-3.90379e-06
2.29775e-07
-4.01972e-06
3.05186e-07
-4.18282e-06
4.37091e-07
-4.44914e-06
7.31137e-07
-4.84734e-06
1.15104e-06
-5.19091e-06
9.63445e-07
-5.46537e-06
7.61318e-07
-5.70314e-06
6.5335e-07
-5.91318e-06
5.78986e-07
-6.10419e-06
5.25415e-07
-6.2788e-06
4.81431e-07
-6.44012e-06
4.44623e-07
-6.58931e-06
4.11813e-07
-6.72774e-06
3.82235e-07
-6.85606e-06
3.54757e-07
-6.975e-06
3.29042e-07
-7.08499e-06
3.04619e-07
-7.18646e-06
2.81307e-07
-7.27974e-06
2.58889e-07
-7.36511e-06
2.37259e-07
-7.44282e-06
2.16309e-07
-7.51311e-06
1.95977e-07
-7.57618e-06
1.76205e-07
-7.63222e-06
1.56953e-07
-7.68141e-06
1.38191e-07
-7.72392e-06
1.19893e-07
-7.75992e-06
1.02037e-07
-7.78957e-06
8.46058e-08
-7.813e-06
6.75861e-08
-7.83038e-06
5.0966e-08
-7.84185e-06
3.47372e-08
-7.84754e-06
1.8899e-08
-7.8476e-06
3.44971e-09
-7.84216e-06
-1.1661e-08
-7.83133e-06
-2.64673e-08
-7.81522e-06
-4.09539e-08
-7.79395e-06
-5.5115e-08
-7.76765e-06
-6.89484e-08
-7.73643e-06
-8.24525e-08
-7.70042e-06
-9.56268e-08
-7.65974e-06
-1.08486e-07
-7.6145e-06
-1.20996e-07
-7.56483e-06
-1.33188e-07
-7.51085e-06
-1.45054e-07
-7.45268e-06
-1.56563e-07
-7.39046e-06
-1.67734e-07
-7.32429e-06
-1.7858e-07
-7.25432e-06
-1.89073e-07
-7.18067e-06
-1.99187e-07
-7.10346e-06
-2.0898e-07
-7.02284e-06
-2.18412e-07
-6.93893e-06
-2.27443e-07
-6.85187e-06
-2.36147e-07
-6.76179e-06
-2.4447e-07
-6.66884e-06
-2.52387e-07
-6.57316e-06
-2.59938e-07
-6.47487e-06
-2.67134e-07
-6.37412e-06
-2.73897e-07
-6.27107e-06
-2.80294e-07
-6.16583e-06
-2.8632e-07
-6.05858e-06
-2.91903e-07
-5.94943e-06
-2.97123e-07
-5.83854e-06
-3.01963e-07
-5.72607e-06
-3.06364e-07
-5.61215e-06
-3.1036e-07
-5.49692e-06
-3.14013e-07
-5.38054e-06
-3.17208e-07
-5.26315e-06
-3.20012e-07
-5.14488e-06
-3.22468e-07
-5.0259e-06
-3.24482e-07
-4.90635e-06
-3.26095e-07
-4.78635e-06
-3.27349e-07
-4.66605e-06
-3.28221e-07
-4.54561e-06
-3.28656e-07
-4.42516e-06
-3.28734e-07
-4.30482e-06
-3.28463e-07
-4.18476e-06
-3.27759e-07
-4.06509e-06
-3.2672e-07
-3.94594e-06
-3.25345e-07
-3.82746e-06
-3.23545e-07
-3.70977e-06
-3.2143e-07
-3.59299e-06
-3.18989e-07
-3.47726e-06
-3.16145e-07
-3.36269e-06
-3.13008e-07
-3.2494e-06
-3.09551e-07
-3.13752e-06
-3.05729e-07
-3.02717e-06
-3.01599e-07
-2.91844e-06
-2.97205e-07
-2.81145e-06
-2.92474e-07
-2.70632e-06
-2.87436e-07
-2.60314e-06
-2.82149e-07
-2.50203e-06
-2.76538e-07
-2.40309e-06
-2.70661e-07
-2.3064e-06
-2.64539e-07
-2.21209e-06
-2.58106e-07
-2.12026e-06
-2.51358e-07
-2.03104e-06
-2.44315e-07
-1.94452e-06
-2.36959e-07
-1.8609e-06
-2.29156e-07
-1.7803e-06
-2.20927e-07
-1.70295e-06
-2.12156e-07
-1.62908e-06
-2.02673e-07
-1.55898e-06
-1.92484e-07
-1.49295e-06
-1.81328e-07
-1.43134e-06
-1.694e-07
-1.37444e-06
-1.56353e-07
-1.32224e-06
-1.43759e-07
-1.27464e-06
-1.3072e-07
-1.22974e-06
-1.24238e-07
-1.18563e-06
-1.22192e-07
-1.13156e-06
-1.56697e-07
-1.07093e-06
-1.79642e-07
-1.01827e-06
-1.49301e-07
-9.72483e-07
-1.22193e-07
-9.19815e-07
-1.40247e-07
-8.56169e-07
-1.68662e-07
-7.78196e-07
-2.06844e-07
-6.83377e-07
-2.51632e-07
-5.69906e-07
-3.0107e-07
-4.35046e-07
-3.582e-07
-2.76846e-07
-4.19979e-07
-9.16191e-08
-4.91888e-07
1.24836e-07
-5.74291e-07
3.79394e-07
-6.76178e-07
6.77158e-07
-7.92638e-07
1.02279e-06
-9.21492e-07
1.42254e-06
-1.06896e-06
1.8802e-06
-1.22627e-06
2.40192e-06
-1.40237e-06
2.98818e-06
-1.58092e-06
3.63912e-06
-1.7603e-06
4.34665e-06
-1.92238e-06
5.09028e-06
-2.01918e-06
5.87099e-06
-2.12315e-06
6.68882e-06
-2.2219e-06
7.54682e-06
-2.33608e-06
8.43529e-06
-2.41202e-06
9.37541e-06
-2.55172e-06
1.03821e-05
-2.73111e-06
1.14594e-05
-2.91073e-06
1.2685e-05
-3.29578e-06
1.41761e-05
-4.03232e-06
1.59815e-05
-4.89149e-06
1.81758e-05
-5.97569e-06
2.08296e-05
-7.24891e-06
2.40342e-05
-8.80713e-06
2.78547e-05
-1.05492e-05
3.24146e-05
-1.27115e-05
3.76278e-05
-1.47338e-05
4.30461e-05
-1.55639e-05
4.75449e-05
-1.32193e-05
4.9169e-05
-4.77724e-06
4.73117e-05
5.58748e-06
4.30807e-05
1.25099e-05
3.78812e-05
1.5115e-05
3.28872e-05
1.42888e-05
2.88382e-05
1.13943e-05
7.15631e-06
3.16322e-05
3.80621e-06
3.10725e-05
1.32185e-06
3.01932e-05
2.5273e-06
2.82701e-05
6.20796e-06
2.48459e-05
1.14052e-05
1.99176e-05
1.65172e-05
1.40522e-05
1.94582e-05
8.44691e-06
1.81378e-05
4.1259e-06
1.34583e-05
1.16004e-06
8.94242e-06
-7.54783e-07
5.60032e-06
-1.94347e-06
3.38725e-06
-2.66638e-06
2.00329e-06
-3.09789e-06
1.16084e-06
-3.35525e-06
6.68355e-07
-3.5141e-06
4.0245e-07
-3.62733e-06
2.92904e-07
-3.72366e-06
2.64383e-07
-3.80637e-06
2.3176e-07
-3.87402e-06
1.89276e-07
-3.93145e-06
1.6269e-07
-3.98066e-06
1.40043e-07
-4.02454e-06
1.26863e-07
-4.06384e-06
1.14417e-07
-4.09759e-06
9.77399e-08
-4.12275e-06
6.93456e-08
-4.13611e-06
2.93971e-08
-4.14213e-06
6.30783e-09
-4.14836e-06
9.67524e-09
-4.15777e-06
2.13215e-08
-4.17091e-06
3.39154e-08
-4.18768e-06
4.54987e-08
-4.20878e-06
5.9414e-08
-4.2349e-06
7.5324e-08
-4.26917e-06
1.02415e-07
-4.31695e-06
1.48762e-07
-4.37714e-06
1.89761e-07
-4.44388e-06
2.08819e-07
-4.5143e-06
2.18794e-07
-4.58895e-06
2.30239e-07
-4.66957e-06
2.47747e-07
-4.7622e-06
2.83615e-07
-4.87321e-06
3.40785e-07
-5.02034e-06
4.52316e-07
-5.22558e-06
6.42327e-07
-5.55221e-06
1.05777e-06
-6.02742e-06
1.62625e-06
-6.44295e-06
1.37897e-06
-6.77912e-06
1.09749e-06
-7.07147e-06
9.45695e-07
-7.32992e-06
8.3744e-07
-7.56495e-06
7.60444e-07
-7.77969e-06
6.96166e-07
-7.97797e-06
6.42908e-07
-8.16121e-06
5.95055e-07
-8.33113e-06
5.52146e-07
-8.48852e-06
5.12147e-07
-8.63428e-06
4.74808e-07
-8.76896e-06
4.39296e-07
-8.89309e-06
4.05441e-07
-9.00707e-06
3.72867e-07
-9.11127e-06
3.41457e-07
-9.20599e-06
3.11031e-07
-9.29153e-06
2.81513e-07
-9.36813e-06
2.52808e-07
-9.43604e-06
2.24866e-07
-9.49549e-06
1.97637e-07
-9.54668e-06
1.71084e-07
-9.58982e-06
1.45177e-07
-9.6251e-06
1.19891e-07
-9.65272e-06
9.52044e-08
-9.67286e-06
7.11012e-08
-9.68569e-06
4.75691e-08
-9.6914e-06
2.46075e-08
-9.69016e-06
2.20873e-09
-9.68212e-06
-1.97008e-08
-9.66742e-06
-4.11648e-08
-9.64621e-06
-6.21607e-08
-9.61865e-06
-8.26816e-08
-9.58487e-06
-1.02725e-07
-9.54503e-06
-1.22289e-07
-9.49929e-06
-1.41373e-07
-9.44777e-06
-1.59999e-07
-9.39065e-06
-1.78115e-07
-9.32807e-06
-1.95769e-07
-9.26018e-06
-2.1295e-07
-9.18713e-06
-2.29611e-07
-9.10908e-06
-2.4578e-07
-9.02619e-06
-2.61477e-07
-8.9386e-06
-2.76662e-07
-8.84649e-06
-2.91294e-07
-8.75001e-06
-3.05461e-07
-8.64932e-06
-3.19104e-07
-8.54459e-06
-3.32164e-07
-8.43599e-06
-3.4475e-07
-8.32368e-06
-3.56783e-07
-8.20784e-06
-3.68226e-07
-8.08864e-06
-3.79138e-07
-7.96624e-06
-3.89535e-07
-7.84083e-06
-3.99304e-07
-7.71258e-06
-4.08541e-07
-7.58166e-06
-4.17242e-07
-7.44827e-06
-4.25298e-07
-7.31256e-06
-4.32828e-07
-7.17472e-06
-4.39808e-07
-7.03493e-06
-4.46151e-07
-6.89338e-06
-4.51906e-07
-6.75023e-06
-4.57165e-07
-6.60568e-06
-4.61759e-07
-6.45991e-06
-4.65785e-07
-6.31307e-06
-4.69307e-07
-6.16536e-06
-4.7219e-07
-6.01697e-06
-4.74489e-07
-5.86805e-06
-4.7627e-07
-5.71877e-06
-4.77495e-07
-5.56934e-06
-4.78088e-07
-5.41991e-06
-4.78161e-07
-5.27065e-06
-4.7773e-07
-5.12174e-06
-4.76669e-07
-4.97334e-06
-4.75122e-07
-4.82559e-06
-4.73089e-07
-4.6787e-06
-4.70438e-07
-4.5328e-06
-4.67331e-07
-4.38803e-06
-4.6375e-07
-4.2446e-06
-4.59584e-07
-4.10261e-06
-4.54994e-07
-3.96222e-06
-4.49937e-07
-3.8236e-06
-4.4435e-07
-3.68689e-06
-4.38316e-07
-3.55219e-06
-4.31897e-07
-3.41968e-06
-4.24989e-07
-3.28948e-06
-4.17633e-07
-3.16172e-06
-4.09913e-07
-3.03653e-06
-4.01722e-07
-2.91405e-06
-3.93141e-07
-2.79439e-06
-3.84203e-07
-2.67769e-06
-3.74809e-07
-2.56409e-06
-3.64955e-07
-2.45374e-06
-3.54668e-07
-2.34677e-06
-3.43924e-07
-2.24341e-06
-3.32521e-07
-2.14383e-06
-3.20508e-07
-2.04829e-06
-3.07689e-07
-1.9571e-06
-2.93863e-07
-1.87061e-06
-2.78976e-07
-1.78918e-06
-2.62759e-07
-1.71325e-06
-2.45335e-07
-1.64313e-06
-2.26469e-07
-1.57888e-06
-2.0801e-07
-1.5203e-06
-1.89299e-07
-1.46527e-06
-1.79266e-07
-1.41153e-06
-1.75938e-07
-1.34763e-06
-2.2059e-07
-1.27705e-06
-2.50223e-07
-1.21368e-06
-2.12669e-07
-1.15617e-06
-1.79706e-07
-1.08952e-06
-2.06899e-07
-1.00871e-06
-2.49467e-07
-9.09686e-07