/*--------------------------------*- C++ -*----------------------------------*\
| =========                 |                                                 |
| \\      /  F ield         | OpenFOAM: The Open Source CFD Toolbox           |
|  \\    /   O peration     | Version:  v2006                                 |
|   \\  /    A nd           | Website:  www.openfoam.com                      |
|    \\/     M anipulation  |                                                 |
\*---------------------------------------------------------------------------*/
FoamFile
{
    version     2.0;
    format      ascii;
    class       volScalarField;
    location    "0";
    object      Cx;
}
// * * * * * * * * * * * * * * * * * * * * * * * * * * * * * * * * * * * * * //

dimensions      [0 1 0 0 0 0 0];


internalField   nonuniform List<scalar> 
40000
(
0.0240205
0.0720628
0.120097
0.168056
0.215749
0.262811
0.308723
0.352987
0.39545
0.436287
0.475787
0.514234
0.551875
0.588941
0.625626
0.662122
0.698613
0.735262
0.772146
0.809257
0.846572
0.884067
0.92172
0.959507
0.997401
1.03538
1.07341
1.11151
1.14972
1.18813
1.22682
1.26587
1.30537
1.34541
1.38608
1.42748
1.46968
1.51269
1.55651
1.60111
1.64646
1.69249
1.73914
1.7863
1.83387
1.88172
1.92972
1.97776
2.02581
2.07385
2.12189
2.16993
2.21798
2.26602
2.31406
2.36211
2.41015
2.45819
2.50623
2.55428
2.60232
2.65036
2.6984
2.74645
2.79449
2.84253
2.89057
2.93862
2.98666
3.0347
3.08274
3.13079
3.17883
3.22687
3.27492
3.32296
3.371
3.41904
3.46709
3.51513
3.56317
3.61121
3.65925
3.7073
3.75534
3.80338
3.85143
3.89947
3.94751
3.99555
4.0436
4.09164
4.13968
4.18772
4.23577
4.28381
4.33185
4.3799
4.42794
4.47598
4.52402
4.57207
4.62011
4.66815
4.71619
4.76424
4.81228
4.86032
4.90837
4.95641
5.00445
5.05249
5.10054
5.14858
5.19662
5.24466
5.29271
5.34075
5.38879
5.43683
5.48488
5.53292
5.58096
5.629
5.67705
5.72509
5.77313
5.82118
5.86922
5.91726
5.9653
6.01335
6.06139
6.10943
6.15747
6.20551
6.25356
6.3016
6.34964
6.39769
6.44573
6.49377
6.54181
6.58986
6.6379
6.68594
6.73398
6.78203
6.83007
6.87811
6.92615
6.9742
7.02224
7.07028
7.11828
7.16614
7.2137
7.26087
7.30751
7.35354
7.39889
7.44349
7.48731
7.53033
7.57253
7.61392
7.65459
7.69463
7.73413
7.77318
7.81187
7.85028
7.8885
7.92659
7.96463
8.00261
8.0405
8.07828
8.11594
8.15343
8.19074
8.22786
8.26475
8.30139
8.33788
8.37438
8.41107
8.44813
8.48577
8.52422
8.56371
8.60455
8.64702
8.69128
8.73719
8.78426
8.83195
8.87991
8.92794
8.97598
0.0240174
0.0720536
0.120082
0.168035
0.215722
0.26278
0.30869
0.352955
0.395424
0.43627
0.475781
0.51424
0.551896
0.588978
0.625681
0.662194
0.698702
0.735368
0.772268
0.809396
0.846726
0.884236
0.921904
0.959705
0.997614
1.03561
1.07365
1.11177
1.14999
1.18842
1.22712
1.26618
1.30569
1.34574
1.38642
1.42782
1.47003
1.51304
1.55687
1.60147
1.64682
1.69285
1.73949
1.78665
1.83421
1.88206
1.93005
1.97809
2.02612
2.07416
2.1222
2.17023
2.21827
2.26631
2.31434
2.36238
2.41042
2.45845
2.50649
2.55453
2.60256
2.6506
2.69863
2.74667
2.79471
2.84274
2.89078
2.93882
2.98685
3.03489
3.08293
3.13096
3.179
3.22704
3.27507
3.32311
3.37115
3.41918
3.46722
3.51525
3.56329
3.61133
3.65936
3.7074
3.75543
3.80347
3.85151
3.89955
3.94758
3.99562
4.04366
4.09169
4.13973
4.18776
4.2358
4.28384
4.33188
4.37991
4.42795
4.47598
4.52402
4.57206
4.62009
4.66813
4.71617
4.7642
4.81224
4.86028
4.90831
4.95635
5.00438
5.05242
5.10046
5.14849
5.19653
5.24457
5.2926
5.34064
5.38868
5.43671
5.48475
5.53279
5.58082
5.62886
5.67689
5.72493
5.77297
5.82101
5.86904
5.91708
5.96511
6.01315
6.06119
6.10922
6.15726
6.20529
6.25333
6.30137
6.34941
6.39744
6.44548
6.49351
6.54155
6.58959
6.63762
6.68566
6.7337
6.78173
6.82977
6.87781
6.92584
6.97388
7.02192
7.06995
7.11794
7.16579
7.21336
7.26052
7.30716
7.35319
7.39853
7.44314
7.48696
7.52998
7.57218
7.61359
7.65426
7.69432
7.73383
7.77289
7.81159
7.85001
7.88824
7.92635
7.9644
8.0024
8.0403
8.07809
8.11577
8.15328
8.1906
8.22774
8.26464
8.3013
8.33781
8.37433
8.41103
8.4481
8.48576
8.52423
8.56373
8.60458
8.64705
8.69131
8.73722
8.78428
8.83197
8.87992
8.92795
8.97598
0.0240143
0.0720442
0.120066
0.168013
0.215694
0.262748
0.308657
0.352924
0.395397
0.436252
0.475774
0.514247
0.551918
0.589017
0.625736
0.662266
0.698793
0.735476
0.772393
0.809536
0.846882
0.884408
0.922091
0.959907
0.997831
1.03584
1.0739
1.11202
1.15027
1.1887
1.22742
1.26649
1.30601
1.34607
1.38676
1.42817
1.47038
1.5134
1.55723
1.60183
1.64718
1.69321
1.73984
1.787
1.83456
1.8824
1.93039
1.97842
2.02645
2.07448
2.12251
2.17054
2.21857
2.2666
2.31463
2.36266
2.41069
2.45872
2.50675
2.55478
2.60281
2.65084
2.69887
2.7469
2.79493
2.84296
2.89099
2.93902
2.98705
3.03508
3.08311
3.13114
3.17917
3.2272
3.27523
3.32326
3.37129
3.41932
3.46735
3.51538
3.56341
3.61144
3.65947
3.7075
3.75553
3.80356
3.8516
3.89962
3.94765
3.99569
4.04372
4.09174
4.13978
4.18781
4.23584
4.28387
4.3319
4.37993
4.42796
4.47599
4.52402
4.57205
4.62008
4.66811
4.71614
4.76417
4.8122
4.86023
4.90826
4.95629
5.00432
5.05235
5.10038
5.14841
5.19644
5.24447
5.2925
5.34053
5.38856
5.43659
5.48462
5.53265
5.58068
5.62871
5.67674
5.72477
5.7728
5.82083
5.86886
5.91689
5.96492
6.01295
6.06098
6.10901
6.15704
6.20507
6.25311
6.30114
6.34916
6.39719
6.44522
6.49325
6.54129
6.58932
6.63734
6.68538
6.73341
6.78144
6.82947
6.8775
6.92553
6.97356
7.02159
7.06961
7.1176
7.16545
7.21301
7.26016
7.3068
7.35283
7.39817
7.44277
7.4866
7.52962
7.57183
7.61324
7.65393
7.69399
7.73351
7.77259
7.8113
7.84974
7.88798
7.92611
7.96417
8.00218
8.0401
8.07791
8.11559
8.15312
8.19046
8.22761
8.26453
8.30121
8.33774
8.37427
8.41099
8.44808
8.48575
8.52423
8.56375
8.60461
8.64708
8.69135
8.73726
8.78431
8.83199
8.87994
8.92796
8.97599
0.0240111
0.0720346
0.12005
0.167991
0.215667
0.262716
0.308623
0.352891
0.39537
0.436233
0.475767
0.514254
0.551941
0.589056
0.625793
0.662341
0.698885
0.735585
0.772519
0.809679
0.847042
0.884583
0.922281
0.960112
0.998051
1.03607
1.07415
1.11229
1.15054
1.18899
1.22772
1.26681
1.30634
1.34641
1.38711
1.42853
1.47074
1.51377
1.5576
1.6022
1.64755
1.69357
1.74021
1.78736
1.83491
1.88275
1.93073
1.97875
2.02678
2.0748
2.12282
2.17085
2.21887
2.26689
2.31492
2.36294
2.41097
2.45899
2.50701
2.55504
2.60306
2.65108
2.69911
2.74713
2.79516
2.84318
2.8912
2.93923
2.98725
3.03528
3.0833
3.13132
3.17935
3.22737
3.27539
3.32342
3.37144
3.41947
3.46749
3.51551
3.56354
3.61156
3.65958
3.70761
3.75563
3.80366
3.85168
3.8997
3.94773
3.99575
4.04378
4.0918
4.13982
4.18785
4.23587
4.2839
4.33192
4.37994
4.42797
4.47599
4.52401
4.57204
4.62006
4.66808
4.71611
4.76413
4.81216
4.86018
4.90821
4.95623
5.00425
5.05228
5.1003
5.14832
5.19635
5.24437
5.2924
5.34042
5.38844
5.43647
5.48449
5.53251
5.58054
5.62856
5.67659
5.72461
5.77263
5.82066
5.86868
5.9167
5.96473
6.01275
6.06078
6.1088
6.15682
6.20485
6.25287
6.3009
6.34892
6.39694
6.44497
6.49299
6.54101
6.58904
6.63706
6.68509
6.73311
6.78113
6.82916
6.87718
6.92521
6.97323
7.02125
7.06927
7.11725
7.16509
7.21265
7.2598
7.30643
7.35246
7.3978
7.44241
7.48623
7.52926
7.57148
7.6129
7.65359
7.69366
7.7332
7.77228
7.81101
7.84946
7.88772
7.92586
7.96394
8.00196
8.03989
8.07772
8.11542
8.15297
8.19032
8.22748
8.26442
8.30112
8.33766
8.37422
8.41095
8.44806
8.48575
8.52424
8.56377
8.60463
8.64711
8.69138
8.73729
8.78434
8.83201
8.87995
8.92797
8.97599
0.0240078
0.0720249
0.120034
0.167969
0.215639
0.262684
0.308589
0.352858
0.395343
0.436215
0.47576
0.514261
0.551963
0.589095
0.62585
0.662416
0.698978
0.735697
0.772648
0.809825
0.847203
0.884761
0.922475
0.960321
0.998274
1.03631
1.0744
1.11256
1.15083
1.18929
1.22803
1.26713
1.30667
1.34675
1.38746
1.42889
1.47111
1.51414
1.55797
1.60258
1.64792
1.69395
1.74058
1.78772
1.83527
1.8831
1.93108
1.97909
2.02711
2.07513
2.12314
2.17116
2.21918
2.2672
2.31521
2.36323
2.41125
2.45926
2.50728
2.5553
2.60332
2.65133
2.69935
2.74737
2.79539
2.8434
2.89142
2.93944
2.98746
3.03547
3.08349
3.13151
3.17952
3.22754
3.27556
3.32358
3.37159
3.41961
3.46763
3.51565
3.56366
3.61168
3.6597
3.70771
3.75573
3.80375
3.85177
3.89978
3.9478
3.99582
4.04384
4.09185
4.13987
4.18789
4.23591
4.28392
4.33194
4.37996
4.42798
4.47599
4.52401
4.57203
4.62004
4.66806
4.71608
4.7641
4.81211
4.86013
4.90815
4.95617
5.00418
5.0522
5.10022
5.14824
5.19625
5.24427
5.29229
5.34031
5.38832
5.43634
5.48436
5.53237
5.58039
5.62841
5.67643
5.72444
5.77246
5.82048
5.8685
5.91651
5.96453
6.01255
6.06057
6.10858
6.1566
6.20462
6.25264
6.30065
6.34867
6.39669
6.4447
6.49272
6.54074
6.58876
6.63677
6.68479
6.73281
6.78083
6.82884
6.87686
6.92488
6.9729
7.02091
7.06893
7.1169
7.16473
7.21228
7.25943
7.30606
7.35208
7.39743
7.44203
7.48586
7.52889
7.57111
7.61254
7.65325
7.69333
7.73287
7.77197
7.81071
7.84918
7.88745
7.9256
7.9637
8.00174
8.03968
8.07752
8.11524
8.1528
8.19018
8.22736
8.26431
8.30102
8.33759
8.37416
8.41091
8.44804
8.48574
8.52425
8.56379
8.60466
8.64715
8.69142
8.73732
8.78437
8.83204
8.87997
8.92798
8.97599
0.0240046
0.0720151
0.120017
0.167946
0.21561
0.262651
0.308554
0.352825
0.395315
0.436196
0.475753
0.514268
0.551986
0.589135
0.625908
0.662493
0.699073
0.73581
0.772778
0.809972
0.847367
0.884941
0.922671
0.960533
0.998502
1.03655
1.07466
1.11283
1.15111
1.18959
1.22835
1.26746
1.30701
1.3471
1.38782
1.42926
1.47149
1.51452
1.55835
1.60296
1.6483
1.69432
1.74095
1.78809
1.83564
1.88346
1.93143
1.97944
2.02745
2.07546
2.12347
2.17148
2.21949
2.2675
2.31551
2.36352
2.41153
2.45954
2.50755
2.55557
2.60358
2.65159
2.6996
2.74761
2.79562
2.84363
2.89164
2.93965
2.98766
3.03567
3.08368
3.1317
3.17971
3.22772
3.27573
3.32374
3.37175
3.41976
3.46777
3.51578
3.56379
3.6118
3.65981
3.70782
3.75583
3.80384
3.85186
3.89987
3.94788
3.99589
4.0439
4.09191
4.13992
4.18793
4.23594
4.28395
4.33197
4.37998
4.42799
4.476
4.52401
4.57202
4.62003
4.66804
4.71605
4.76406
4.81207
4.86008
4.90809
4.9561
5.00411
5.05213
5.10014
5.14815
5.19616
5.24417
5.29218
5.34019
5.3882
5.43621
5.48422
5.53223
5.58024
5.62825
5.67627
5.72428
5.77229
5.8203
5.86831
5.91632
5.96433
6.01234
6.06035
6.10836
6.15637
6.20438
6.2524
6.30041
6.34842
6.39643
6.44444
6.49245
6.54046
6.58847
6.63648
6.68449
6.7325
6.78051
6.82852
6.87654
6.92455
6.97256
7.02057
7.06858
7.11654
7.16437
7.21191
7.25905
7.30568
7.3517
7.39704
7.44165
7.48548
7.52852
7.57075
7.61218
7.6529
7.69299
7.73255
7.77166
7.81041
7.84889
7.88718
7.92534
7.96345
8.00151
8.03947
8.07733
8.11506
8.15264
8.19003
8.22723
8.2642
8.30093
8.33751
8.3741
8.41087
8.44801
8.48573
8.52425
8.56381
8.60469
8.64718
8.69145
8.73735
8.78439
8.83206
8.87999
8.92799
8.976
0.0240012
0.072005
0.120001
0.167923
0.215581
0.262617
0.308518
0.352791
0.395286
0.436177
0.475746
0.514276
0.55201
0.589176
0.625967
0.66257
0.69917
0.735925
0.772911
0.810122
0.847534
0.885125
0.922871
0.960748
0.998733
1.0368
1.07492
1.11311
1.15141
1.1899
1.22867
1.26779
1.30736
1.34746
1.38819
1.42963
1.47187
1.5149
1.55874
1.60335
1.64869
1.69471
1.74133
1.78847
1.83601
1.88382
1.93179
1.97979
2.02779
2.0758
2.1238
2.1718
2.21981
2.26781
2.31582
2.36382
2.41182
2.45983
2.50783
2.55584
2.60384
2.65184
2.69985
2.74785
2.79586
2.84386
2.89187
2.93987
2.98787
3.03588
3.08388
3.13189
3.17989
3.22789
3.2759
3.3239
3.37191
3.41991
3.46791
3.51592
3.56392
3.61192
3.65993
3.70793
3.75594
3.80394
3.85195
3.89995
3.94795
3.99596
4.04396
4.09197
4.13997
4.18798
4.23598
4.28398
4.33199
4.37999
4.428
4.476
4.524
4.57201
4.62001
4.66801
4.71602
4.76403
4.81203
4.86003
4.90804
4.95604
5.00404
5.05205
5.10005
5.14806
5.19606
5.24407
5.29207
5.34007
5.38808
5.43608
5.48409
5.53209
5.58009
5.6281
5.6761
5.7241
5.77211
5.82012
5.86812
5.91612
5.96413
6.01213
6.06014
6.10814
6.15614
6.20415
6.25215
6.30016
6.34816
6.39616
6.44417
6.49217
6.54018
6.58818
6.63618
6.68419
6.73219
6.7802
6.8282
6.87621
6.92421
6.97221
7.02022
7.06822
7.11618
7.164
7.21154
7.25867
7.3053
7.35132
7.39666
7.44126
7.4851
7.52814
7.57037
7.61182
7.65254
7.69264
7.73221
7.77134
7.81011
7.8486
7.8869
7.92508
7.96321
8.00128
8.03926
8.07713
8.11488
8.15247
8.18988
8.22709
8.26408
8.30083
8.33743
8.37404
8.41083
8.44799
8.48573
8.52426
8.56382
8.60472
8.64721
8.69149
8.73739
8.78442
8.83208
8.88
8.928
8.976
0.0239978
0.0719948
0.119984
0.167899
0.215551
0.262583
0.308482
0.352756
0.395257
0.436157
0.475739
0.514283
0.552034
0.589218
0.626028
0.66265
0.699268
0.736041
0.773046
0.810275
0.847704
0.885311
0.923073
0.960967
0.998968
1.03705
1.07519
1.11339
1.1517
1.19021
1.22899
1.26813
1.30771
1.34782
1.38856
1.43001
1.47225
1.51529
1.55913
1.60374
1.64908
1.6951
1.74172
1.78885
1.83638
1.88419
1.93215
1.98014
2.02814
2.07614
2.12414
2.17213
2.22013
2.26813
2.31613
2.36412
2.41212
2.46012
2.50811
2.55611
2.60411
2.65211
2.7001
2.7481
2.7961
2.8441
2.89209
2.94009
2.98809
3.03608
3.08408
3.13208
3.18008
3.22807
3.27607
3.32407
3.37207
3.42006
3.46806
3.51606
3.56405
3.61205
3.66005
3.70805
3.75604
3.80404
3.85204
3.90004
3.94803
3.99603
4.04403
4.09202
4.14002
4.18802
4.23602
4.28402
4.33201
4.38001
4.42801
4.476
4.524
4.572
4.61999
4.66799
4.71599
4.76399
4.81198
4.85998
4.90798
4.95598
5.00397
5.05197
5.09997
5.14796
5.19596
5.24396
5.29196
5.33996
5.38795
5.43595
5.48395
5.53194
5.57994
5.62794
5.67593
5.72393
5.77193
5.81993
5.86792
5.91592
5.96392
6.01192
6.05991
6.10791
6.15591
6.2039
6.2519
6.2999
6.3479
6.39589
6.44389
6.49189
6.53989
6.58788
6.63588
6.68388
6.73188
6.77987
6.82787
6.87587
6.92387
6.97186
7.01986
7.06785
7.11581
7.16362
7.21115
7.25828
7.30491
7.35092
7.39626
7.44087
7.48471
7.52775
7.56999
7.61144
7.65218
7.69229
7.73187
7.77101
7.80979
7.8483
7.88662
7.92482
7.96296
8.00104
8.03904
8.07693
8.11469
8.1523
8.18973
8.22696
8.26397
8.30073
8.33736
8.37398
8.41079
8.44797
8.48572
8.52427
8.56384
8.60474
8.64725
8.69152
8.73742
8.78445
8.8321
8.88002
8.92801
8.976
0.0239944
0.0719845
0.119967
0.167875
0.215521
0.262548
0.308445
0.352721
0.395228
0.436137
0.475732
0.514291
0.552058
0.58926
0.626089
0.66273
0.699368
0.73616
0.773183
0.81043
0.847877
0.8855
0.92328
0.96119
0.999206
1.0373
1.07546
1.11367
1.152
1.19053
1.22932
1.26847
1.30807
1.34819
1.38894
1.4304
1.47264
1.51569
1.55953
1.60414
1.64948
1.6955
1.74211
1.78924
1.83677
1.88457
1.93252
1.98051
2.0285
2.07649
2.12448
2.17247
2.22046
2.26845
2.31644
2.36443
2.41242
2.46041
2.5084
2.55639
2.60438
2.65237
2.70036
2.74835
2.79634
2.84433
2.89232
2.94031
2.9883
3.0363
3.08429
3.13228
3.18027
3.22826
3.27625
3.32424
3.37223
3.42022
3.46821
3.5162
3.56419
3.61218
3.66017
3.70816
3.75615
3.80414
3.85213
3.90012
3.94811
3.9961
4.04409
4.09208
4.14007
4.18806
4.23605
4.28405
4.33204
4.38003
4.42802
4.47601
4.524
4.57199
4.61998
4.66797
4.71596
4.76395
4.81194
4.85993
4.90792
4.95591
5.0039
5.05189
5.09988
5.14787
5.19586
5.24385
5.29184
5.33983
5.38783
5.43581
5.4838
5.5318
5.57978
5.62777
5.67577
5.72376
5.77175
5.81974
5.86773
5.91572
5.96371
6.0117
6.05969
6.10768
6.15567
6.20366
6.25165
6.29964
6.34763
6.39562
6.44361
6.4916
6.53959
6.58758
6.63557
6.68356
6.73156
6.77954
6.82754
6.87553
6.92352
6.97151
7.0195
7.06748
7.11543
7.16324
7.21076
7.25789
7.30451
7.35052
7.39586
7.44047
7.48431
7.52736
7.56961
7.61107
7.65181
7.69194
7.73153
7.77068
7.80948
7.848
7.88633
7.92455
7.9627
8.0008
8.03882
8.07672
8.1145
8.15213
8.18957
8.22682
8.26385
8.30063
8.33727
8.37392
8.41075
8.44794
8.48571
8.52427
8.56386
8.60477
8.64728
8.69156
8.73746
8.78448
8.83213
8.88004
8.92802
8.97601
0.0239909
0.071974
0.119949
0.167851
0.215491
0.262513
0.308408
0.352686
0.395198
0.436117
0.475724
0.514298
0.552083
0.589303
0.626151
0.662812
0.699469
0.736281
0.773322
0.810587
0.848052
0.885693
0.923489
0.961416
0.999449
1.03756
1.07573
1.11396
1.15231
1.19085
1.22966
1.26882
1.30843
1.34857
1.38932
1.43079
1.47304
1.51609
1.55994
1.60455
1.64989
1.6959
1.74251
1.78963
1.83715
1.88495
1.93289
1.98088
2.02886
2.07684
2.12483
2.17281
2.22079
2.26878
2.31676
2.36474
2.41273
2.46071
2.50869
2.55668
2.60466
2.65264
2.70063
2.74861
2.79659
2.84458
2.89256
2.94054
2.98853
3.03651
3.08449
3.13248
3.18046
3.22844
3.27643
3.32441
3.37239
3.42038
3.46836
3.51634
3.56433
3.61231
3.66029
3.70828
3.75626
3.80424
3.85223
3.90021
3.94819
3.99618
4.04416
4.09214
4.14013
4.18811
4.23609
4.28408
4.33206
4.38004
4.42803
4.47601
4.52399
4.57198
4.61996
4.66794
4.71593
4.76391
4.81189
4.85988
4.90786
4.95584
5.00383
5.05181
5.09979
5.14778
5.19576
5.24375
5.29173
5.33971
5.3877
5.43568
5.48366
5.53164
5.57963
5.62761
5.67559
5.72358
5.77156
5.81955
5.86753
5.91551
5.9635
6.01148
6.05946
6.10745
6.15543
6.20341
6.2514
6.29938
6.34736
6.39534
6.44333
6.49131
6.53929
6.58728
6.63526
6.68324
6.73123
6.77921
6.8272
6.87518
6.92316
6.97115
7.01913
7.06711
7.11505
7.16285
7.21037
7.25749
7.3041
7.35012
7.39546
7.44006
7.48391
7.52696
7.56921
7.61068
7.65143
7.69157
7.73118
7.77035
7.80916
7.84769
7.88604
7.92427
7.96244
8.00056
8.03859
8.07651
8.11431
8.15196
8.18941
8.22668
8.26373
8.30053
8.33719
8.37386
8.4107
8.44792
8.4857
8.52428
8.56388
8.6048
8.64732
8.6916
8.73749
8.78451
8.83215
8.88006
8.92803
8.97601
0.0239873
0.0719633
0.119931
0.167826
0.21546
0.262477
0.30837
0.35265
0.395168
0.436097
0.475717
0.514306
0.552108
0.589347
0.626214
0.662895
0.699572
0.736403
0.773464
0.810748
0.84823
0.885889
0.923702
0.961646
0.999696
1.03783
1.07601
1.11426
1.15262
1.19118
1.23
1.26918
1.3088
1.34895
1.38971
1.43119
1.47345
1.51651
1.56035
1.60496
1.6503
1.69631
1.74292
1.79004
1.83755
1.88534
1.93328
1.98125
2.02923
2.0772
2.12518
2.17316
2.22113
2.26911
2.31708
2.36506
2.41304
2.46101
2.50899
2.55696
2.60494
2.65292
2.70089
2.74887
2.79685
2.84482
2.8928
2.94077
2.98875
3.03673
3.0847
3.13268
3.18066
3.22863
3.27661
3.32458
3.37256
3.42054
3.46851
3.51649
3.56447
3.61244
3.66042
3.70839
3.75637
3.80435
3.85232
3.9003
3.94827
3.99625
4.04423
4.0922
4.14018
4.18816
4.23613
4.28411
4.33209
4.38006
4.42804
4.47601
4.52399
4.57197
4.61994
4.66792
4.71589
4.76387
4.81185
4.85982
4.9078
4.95578
5.00375
5.05173
5.09971
5.14768
5.19566
5.24364
5.29161
5.33959
5.38756
5.43554
5.48351
5.53149
5.57947
5.62744
5.67542
5.72339
5.77137
5.81935
5.86732
5.9153
5.96328
6.01125
6.05923
6.10721
6.15518
6.20316
6.25114
6.29911
6.34709
6.39506
6.44304
6.49101
6.53899
6.58697
6.63494
6.68292
6.7309
6.77887
6.82685
6.87483
6.9228
6.97078
7.01875
7.06673
7.11466
7.16245
7.20997
7.25708
7.30369
7.3497
7.39504
7.43965
7.4835
7.52656
7.56882
7.61029
7.65105
7.6912
7.73082
7.77
7.80883
7.84738
7.88575
7.92399
7.96218
8.00031
8.03836
8.0763
8.11411
8.15178
8.18925
8.22654
8.2636
8.30043
8.33711
8.3738
8.41066
8.44789
8.4857
8.52429
8.5639
8.60483
8.64736
8.69163
8.73753
8.78454
8.83218
8.88007
8.92804
8.97602
0.0239837
0.0719524
0.119913
0.167801
0.215428
0.262441
0.308331
0.352613
0.395137
0.436076
0.475709
0.514314
0.552133
0.589391
0.626278
0.662979
0.699677
0.736528
0.773608
0.81091
0.848411
0.886088
0.923919
0.96188
0.999946
1.03809
1.0763
1.11456
1.15294
1.19151
1.23035
1.26954
1.30917
1.34933
1.39011
1.4316
1.47386
1.51692
1.56077
1.60538
1.65072
1.69673
1.74333
1.79044
1.83795
1.88574
1.93366
1.98163
2.0296
2.07757
2.12554
2.17351
2.22148
2.26944
2.31741
2.36538
2.41335
2.46132
2.50929
2.55726
2.60523
2.6532
2.70117
2.74913
2.7971
2.84507
2.89304
2.94101
2.98898
3.03695
3.08492
3.13289
3.18086
3.22882
3.27679
3.32476
3.37273
3.4207
3.46867
3.51664
3.56461
3.61257
3.66054
3.70851
3.75648
3.80445
3.85242
3.90039
3.94836
3.99633
4.0443
4.09226
4.14023
4.1882
4.23617
4.28414
4.33211
4.38008
4.42805
4.47602
4.52399
4.57195
4.61992
4.66789
4.71586
4.76383
4.8118
4.85977
4.90774
4.95571
5.00368
5.05165
5.09961
5.14758
5.19555
5.24352
5.29149
5.33946
5.38743
5.4354
5.48337
5.53133
5.5793
5.62727
5.67524
5.72321
5.77118
5.81915
5.86712
5.91509
5.96306
6.01103
6.05899
6.10696
6.15493
6.2029
6.25087
6.29884
6.34681
6.39478
6.44275
6.49071
6.53868
6.58665
6.63462
6.68259
6.73056
6.77853
6.8265
6.87447
6.92244
6.9704
7.01837
7.06634
7.11427
7.16205
7.20956
7.25667
7.30328
7.34928
7.39462
7.43923
7.48308
7.52614
7.56841
7.6099
7.65067
7.69083
7.73046
7.76966
7.8085
7.84707
7.88545
7.92371
7.96191
8.00006
8.03813
8.07608
8.11392
8.1516
8.18909
8.2264
8.26348
8.30033
8.33703
8.37373
8.41062
8.44787
8.48569
8.5243
8.56393
8.60486
8.64739
8.69167
8.73756
8.78458
8.8322
8.88009
8.92805
8.97602
0.02398
0.0719413
0.119895
0.167775
0.215396
0.262404
0.308292
0.352575
0.395106
0.436055
0.475701
0.514322
0.552159
0.589436
0.626343
0.663065
0.699783
0.736655
0.773754
0.811076
0.848595
0.88629
0.924139
0.962117
1.0002
1.03836
1.07658
1.11487
1.15326
1.19185
1.2307
1.26991
1.30955
1.34972
1.39051
1.43201
1.47428
1.51735
1.5612
1.60581
1.65115
1.69715
1.74375
1.79086
1.83836
1.88614
1.93406
1.98202
2.02998
2.07794
2.1259
2.17386
2.22183
2.26979
2.31775
2.36571
2.41367
2.46163
2.5096
2.55756
2.60552
2.65348
2.70144
2.7494
2.79737
2.84533
2.89329
2.94125
2.98921
3.03717
3.08513
3.1331
3.18106
3.22902
3.27698
3.32494
3.3729
3.42087
3.46883
3.51679
3.56475
3.61271
3.66067
3.70863
3.7566
3.80456
3.85252
3.90048
3.94844
3.99641
4.04437
4.09233
4.14029
4.18825
4.23621
4.28418
4.33214
4.3801
4.42806
4.47602
4.52398
4.57194
4.61991
4.66787
4.71583
4.76379
4.81175
4.85971
4.90768
4.95564
5.0036
5.05156
5.09952
5.14748
5.19545
5.24341
5.29137
5.33933
5.38729
5.43525
5.48321
5.53118
5.57914
5.6271
5.67506
5.72302
5.77098
5.81895
5.86691
5.91487
5.96283
6.01079
6.05875
6.10672
6.15468
6.20264
6.2506
6.29856
6.34652
6.39449
6.44245
6.49041
6.53837
6.58633
6.63429
6.68225
6.73022
6.77818
6.82614
6.8741
6.92206
6.97002
7.01799
7.06595
7.11386
7.16164
7.20915
7.25625
7.30285
7.34886
7.39419
7.43881
7.48266
7.52573
7.568
7.60949
7.65027
7.69045
7.7301
7.7693
7.80816
7.84674
7.88514
7.92342
7.96164
7.99981
8.03789
8.07586
8.11371
8.15141
8.18892
8.22625
8.26335
8.30022
8.33694
8.37367
8.41057
8.44784
8.48568
8.5243
8.56395
8.6049
8.64743
8.69171
8.7376
8.78461
8.83223
8.88011
8.92806
8.97602
0.0239762
0.0719301
0.119876
0.167749
0.215363
0.262366
0.308252
0.352537
0.395074
0.436033
0.475693
0.51433
0.552185
0.589482
0.62641
0.663152
0.699891
0.736783
0.773903
0.811244
0.848782
0.886496
0.924362
0.962359
1.00046
1.03864
1.07688
1.11518
1.15359
1.19219
1.23106
1.27028
1.30994
1.35012
1.39092
1.43243
1.47471
1.51778
1.56163
1.60624
1.65158
1.69758
1.74418
1.79128
1.83878
1.88655
1.93446
1.98241
2.03037
2.07832
2.12627
2.17423
2.22218
2.27014
2.31809
2.36604
2.414
2.46195
2.50991
2.55786
2.60581
2.65377
2.70172
2.74968
2.79763
2.84559
2.89354
2.94149
2.98945
3.0374
3.08536
3.13331
3.18126
3.22922
3.27717
3.32513
3.37308
3.42103
3.46899
3.51694
3.5649
3.61285
3.6608
3.70876
3.75671
3.80467
3.85262
3.90058
3.94853
3.99648
4.04444
4.09239
4.14035
4.1883
4.23625
4.28421
4.33216
4.38012
4.42807
4.47603
4.52398
4.57193
4.61989
4.66784
4.71579
4.76375
4.8117
4.85966
4.90761
4.95557
5.00352
5.05148
5.09943
5.14738
5.19534
5.24329
5.29125
5.3392
5.38715
5.43511
5.48306
5.53102
5.57897
5.62692
5.67488
5.72283
5.77079
5.81874
5.86669
5.91465
5.9626
6.01056
6.05851
6.10647
6.15442
6.20237
6.25033
6.29828
6.34623
6.39419
6.44214
6.4901
6.53805
6.58601
6.63396
6.68191
6.72987
6.77782
6.82578
6.87373
6.92168
6.96964
7.01759
7.06554
7.11346
7.16123
7.20872
7.25582
7.30242
7.34842
7.39376
7.43837
7.48223
7.5253
7.56758
7.60908
7.64988
7.69006
7.72972
7.76895
7.80782
7.84642
7.88483
7.92313
7.96136
7.99955
8.03765
8.07564
8.11351
8.15122
8.18876
8.2261
8.26322
8.30011
8.33685
8.3736
8.41052
8.44781
8.48567
8.52431
8.56397
8.60493
8.64747
8.69175
8.73764
8.78464
8.83225
8.88013
8.92807
8.97603
0.0239724
0.0719187
0.119857
0.167723
0.21533
0.262328
0.308211
0.352499
0.395042
0.436011
0.475685
0.514338
0.552212
0.589529
0.626477
0.663241
0.700001
0.736914
0.774054
0.811415
0.848972
0.886705
0.92459
0.962604
1.00072
1.03892
1.07718
1.11549
1.15392
1.19254
1.23142
1.27066
1.31033
1.35053
1.39134
1.43285
1.47514
1.51821
1.56207
1.60669
1.65202
1.69802
1.74461
1.79171
1.8392
1.88696
1.93487
1.98281
2.03076
2.0787
2.12665
2.1746
2.22254
2.27049
2.31844
2.36638
2.41433
2.46228
2.51022
2.55817
2.60612
2.65406
2.70201
2.74996
2.7979
2.84585
2.89379
2.94174
2.98969
3.03763
3.08558
3.13353
3.18147
3.22942
3.27737
3.32531
3.37326
3.42121
3.46915
3.5171
3.56505
3.61299
3.66094
3.70888
3.75683
3.80478
3.85273
3.90067
3.94862
3.99656
4.04451
4.09246
4.1404
4.18835
4.2363
4.28424
4.33219
4.38014
4.42808
4.47603
4.52397
4.57192
4.61987
4.66781
4.71576
4.76371
4.81165
4.8596
4.90755
4.95549
5.00344
5.05139
5.09933
5.14728
5.19523
5.24317
5.29112
5.33907
5.38701
5.43496
5.4829
5.53085
5.5788
5.62674
5.67469
5.72264
5.77058
5.81853
5.86648
5.91442
5.96237
6.01032
6.05826
6.10621
6.15415
6.2021
6.25005
6.298
6.34594
6.39389
6.44184
6.48978
6.53773
6.58567
6.63362
6.68157
6.72951
6.77746
6.82541
6.87336
6.9213
6.96925
7.01719
7.06514
7.11304
7.16081
7.2083
7.25539
7.30198
7.34798
7.39332
7.43793
7.48179
7.52487
7.56715
7.60867
7.64947
7.68967
7.72934
7.76858
7.80747
7.84608
7.88452
7.92283
7.96108
7.99929
8.0374
8.07541
8.1133
8.15103
8.18859
8.22595
8.26309
8.3
8.33676
8.37353
8.41048
8.44779
8.48566
8.52432
8.56399
8.60496
8.64751
8.69179
8.73768
8.78467
8.83228
8.88015
8.92808
8.97603
0.0239686
0.0719071
0.119838
0.167696
0.215297
0.262289
0.30817
0.352459
0.395009
0.435989
0.475677
0.514347
0.552239
0.589576
0.626546
0.663331
0.700113
0.737047
0.774208
0.811589
0.849166
0.886917
0.924821
0.962854
1.00099
1.03921
1.07748
1.11581
1.15426
1.19289
1.2318
1.27105
1.31073
1.35094
1.39176
1.43328
1.47558
1.51866
1.56252
1.60714
1.65247
1.69847
1.74506
1.79214
1.83963
1.88738
1.93528
1.98322
2.03116
2.0791
2.12703
2.17497
2.22291
2.27085
2.31879
2.36673
2.41467
2.46261
2.51054
2.55848
2.60642
2.65436
2.7023
2.75024
2.79818
2.84612
2.89405
2.94199
2.98993
3.03787
3.08581
3.13375
3.18169
3.22963
3.27756
3.3255
3.37344
3.42138
3.46932
3.51726
3.5652
3.61313
3.66107
3.70901
3.75695
3.80489
3.85283
3.90077
3.94871
3.99665
4.04458
4.09252
4.14046
4.1884
4.23634
4.28428
4.33222
4.38016
4.42809
4.47603
4.52397
4.57191
4.61985
4.66779
4.71573
4.76367
4.8116
4.85954
4.90748
4.95542
5.00336
5.0513
5.09924
5.14717
5.19511
5.24305
5.29099
5.33893
5.38687
5.43481
5.48275
5.53069
5.57862
5.62656
5.6745
5.72244
5.77038
5.81832
5.86626
5.91419
5.96213
6.01007
6.05801
6.10595
6.15389
6.20183
6.24977
6.29771
6.34564
6.39358
6.44152
6.48946
6.5374
6.58534
6.63327
6.68121
6.72915
6.77709
6.82503
6.87297
6.92091
6.96885
7.01679
7.06472
7.11262
7.16038
7.20786
7.25495
7.30154
7.34753
7.39287
7.43748
7.48134
7.52443
7.56672
7.60824
7.64906
7.68927
7.72896
7.76821
7.80711
7.84575
7.88419
7.92252
7.9608
7.99902
8.03715
8.07518
8.11309
8.15084
8.18841
8.2258
8.26296
8.29989
8.33667
8.37346
8.41043
8.44776
8.48566
8.52433
8.56401
8.60499
8.64755
8.69183
8.73772
8.78471
8.83231
8.88017
8.9281
8.97603
0.0239646
0.0718953
0.119818
0.167669
0.215262
0.262249
0.308128
0.352419
0.394976
0.435967
0.475668
0.514355
0.552267
0.589624
0.626615
0.663423
0.700227
0.737183
0.774364
0.811765
0.849362
0.887133
0.925056
0.963107
1.00126
1.0395
1.07779
1.11614
1.1546
1.19325
1.23217
1.27144
1.31114
1.35136
1.39219
1.43372
1.47602
1.51911
1.56297
1.60759
1.65292
1.69892
1.7455
1.79259
1.84006
1.88781
1.9357
1.98363
2.03156
2.07949
2.12742
2.17535
2.22328
2.27122
2.31915
2.36708
2.41501
2.46294
2.51087
2.5588
2.60673
2.65466
2.70259
2.75052
2.79846
2.84639
2.89432
2.94225
2.99018
3.03811
3.08604
3.13397
3.1819
3.22983
3.27776
3.3257
3.37363
3.42156
3.46949
3.51742
3.56535
3.61328
3.66121
3.70914
3.75707
3.805
3.85294
3.90087
3.9488
3.99673
4.04466
4.09259
4.14052
4.18845
4.23638
4.28431
4.33225
4.38018
4.42811
4.47604
4.52397
4.5719
4.61983
4.66776
4.71569
4.76362
4.81155
4.85948
4.90742
4.95535
5.00328
5.05121
5.09914
5.14707
5.195
5.24293
5.29086
5.33879
5.38672
5.43465
5.48258
5.53052
5.57845
5.62638
5.67431
5.72224
5.77017
5.8181
5.86603
5.91396
5.96189
6.00983
6.05776
6.10569
6.15362
6.20155
6.24948
6.29741
6.34534
6.39327
6.4412
6.48913
6.53706
6.585
6.63292
6.68086
6.72879
6.77672
6.82465
6.87258
6.92051
6.96844
7.01637
7.0643
7.11219
7.15994
7.20742
7.2545
7.30109
7.34708
7.39241
7.43703
7.48089
7.52398
7.56628
7.60781
7.64864
7.68886
7.72856
7.76783
7.80675
7.8454
7.88387
7.92222
7.96051
7.99875
8.0369
8.07494
8.11287
8.15064
8.18824
8.22564
8.26283
8.29978
8.33658
8.37339
8.41038
8.44773
8.48565
8.52434
8.56403
8.60503
8.64759
8.69188
8.73775
8.78474
8.83234
8.88019
8.92811
8.97604
0.0239606
0.0718833
0.119798
0.167641
0.215228
0.262209
0.308086
0.352379
0.394942
0.435944
0.47566
0.514364
0.552295
0.589673
0.626686
0.663516
0.700342
0.73732
0.774523
0.811945
0.849562
0.887352
0.925294
0.963365
1.00154
1.03979
1.0781
1.11647
1.15495
1.19362
1.23255
1.27184
1.31155
1.35179
1.39263
1.43417
1.47648
1.51957
1.56344
1.60806
1.65339
1.69938
1.74596
1.79304
1.84051
1.88825
1.93613
1.98405
2.03197
2.0799
2.12782
2.17574
2.22366
2.27159
2.31951
2.36743
2.41536
2.46328
2.5112
2.55912
2.60705
2.65497
2.70289
2.75082
2.79874
2.84666
2.89459
2.94251
2.99043
3.03835
3.08628
3.1342
3.18212
3.23005
3.27797
3.32589
3.37381
3.42174
3.46966
3.51758
3.56551
3.61343
3.66135
3.70927
3.7572
3.80512
3.85304
3.90097
3.94889
3.99681
4.04473
4.09266
4.14058
4.1885
4.23643
4.28435
4.33227
4.3802
4.42812
4.47604
4.52396
4.57189
4.61981
4.66773
4.71565
4.76358
4.8115
4.85942
4.90735
4.95527
5.00319
5.05112
5.09904
5.14696
5.19488
5.24281
5.29073
5.33865
5.38658
5.4345
5.48242
5.53034
5.57827
5.62619
5.67411
5.72203
5.76996
5.81788
5.8658
5.91373
5.96165
6.00957
6.0575
6.10542
6.15334
6.20126
6.24919
6.29711
6.34503
6.39296
6.44088
6.4888
6.53672
6.58465
6.63257
6.68049
6.72842
6.77634
6.82426
6.87219
6.92011
6.96803
7.01595
7.06387
7.11176
7.1595
7.20697
7.25404
7.30063
7.34662
7.39195
7.43657
7.48043
7.52353
7.56583
7.60737
7.64821
7.68845
7.72817
7.76745
7.80639
7.84505
7.88354
7.9219
7.96021
7.99847
8.03664
8.0747
8.11265
8.15045
8.18806
8.22548
8.26269
8.29966
8.33649
8.37332
8.41033
8.44771
8.48564
8.52435
8.56406
8.60506
8.64763
8.69192
8.7378
8.78478
8.83236
8.88021
8.92812
8.97604
0.0239566
0.0718711
0.119778
0.167613
0.215192
0.262168
0.308043
0.352337
0.394907
0.43592
0.475651
0.514373
0.552323
0.589723
0.626758
0.663611
0.70046
0.73746
0.774684
0.812127
0.849765
0.887575
0.925537
0.963626
1.00182
1.04009
1.07842
1.11681